CH4 cc-pvtz                                                             
SP        RHF                                                         CC-pVTZ             
Number of atoms                            I                5
Charge                                     I                0
Multiplicity                               I                1
Number of electrons                        I               10
Number of alpha electrons                  I                5
Number of beta electrons                   I                5
Number of basis functions                  I               86
Number of independant functions            I               86
Number of point charges in /Mol/           I                0
Number of translation vectors              I                0
Info1-9                                    I   N=           9
          14          14           0           0           0         110
           1           1           2
Num ILSW                                   I              100
ILSW                                       I   N=         100
           0           0           0           0           2           0
           0           0           0           0           0     1000000
           0           1           0           0           0           0
           0     1000000           1           0           0           0
           1           0           0           0     1000000           0
           0           0           0           0          -1           0
           0           0           0           0           0           0
           0           0           0           1           0           0
           0           0           1     1000000     1000000           0
           0           0           0           0           0           0
           0           0           0           0           0           0
           0           0           0           0           0           0
           0           0           0           0           0           0
           0           0           0           0           0           0
           0           0           0           0           0           0
           0           0           0           0           0           0
           0           0           0           0
Number of contracted shells                I               34
Highest angular momentum                   I                3
Largest degree of contraction              I                7
Number of primitive shells                 I               56
Pure/Cartesian d shells                    I                0
Pure/Cartesian f shells                    I                0
Virial Ratio                               R      2.002093153625944E+00
SCF Energy                                 R     -4.021312087070718E+01
Total Energy                               R     -4.021312087070718E+01
RMS Density                                R      9.037828375573284E-06
Atomic numbers                             I   N=           5
           6           1           1           1           1
Nuclear charges                            R   N=           5
  6.00000000E+00  1.00000000E+00  1.00000000E+00  1.00000000E+00  1.00000000E+00
Current cartesian coordinates              R   N=          15
  0.00000000E+00  0.00000000E+00  0.00000000E+00  1.19309420E+00  1.19309420E+00
  1.19309420E+00 -1.19309420E+00 -1.19309420E+00  1.19309420E+00  1.19309420E+00
 -1.19309420E+00 -1.19309420E+00 -1.19309420E+00  1.19309420E+00 -1.19309420E+00
Int Atom Types                             I   N=           5
           0           0           0           0           0
Force Field                                I                0
MM charges                                 R   N=           5
  0.00000000E+00  0.00000000E+00  0.00000000E+00  0.00000000E+00  0.00000000E+00
Integer atomic weights                     I   N=           5
          12           1           1           1           1
Real atomic weights                        R   N=           5
  1.20000000E+01  1.00782504E+00  1.00782504E+00  1.00782504E+00  1.00782504E+00
Atom residue info                          I   N=           5
           0           0           0           0           0
Atom fragment info                         I   N=           5
           0           0           0           0           0
Atom residue num                           I   N=           5
           0           0           0           0           0
Nuclear spins                              I   N=           5
           0           1           1           1           1
Nuclear ZEff                               R   N=           5
 -3.60000000E+00 -1.00000000E+00 -1.00000000E+00 -1.00000000E+00 -1.00000000E+00
Nuclear QMom                               R   N=           5
  0.00000000E+00  0.00000000E+00  0.00000000E+00  0.00000000E+00  0.00000000E+00
Nuclear GFac                               R   N=           5
  0.00000000E+00  2.79284600E+00  2.79284600E+00  2.79284600E+00  2.79284600E+00
MicOpt                                     I   N=           5
           0           0           0           0           0
Constraint Structure                       R   N=          15
  0.00000000E+00  0.00000000E+00  0.00000000E+00  1.19309420E+00  1.19309420E+00
  1.19309420E+00 -1.19309420E+00 -1.19309420E+00  1.19309420E+00  1.19309420E+00
 -1.19309420E+00 -1.19309420E+00 -1.19309420E+00  1.19309420E+00 -1.19309420E+00
ONIOM Charges                              I   N=          16
           0           0           0           0           0           0
           0           0           0           0           0           0
           0           0           0           0
ONIOM Multiplicities                       I   N=          16
           1           0           0           0           0           0
           0           0           0           0           0           0
           0           0           0           0
Atom Layers                                I   N=           5
           1           1           1           1           1
Atom Modifiers                             I   N=           5
           0           0           0           0           0
Int Atom Modified Types                    I   N=           5
           0           0           0           0           0
Link Atoms                                 I   N=           5
           0           0           0           0           0
Atom Modified MM Charges                   R   N=           5
  0.00000000E+00  0.00000000E+00  0.00000000E+00  0.00000000E+00  0.00000000E+00
Link Distances                             R   N=          20
  0.00000000E+00  0.00000000E+00  0.00000000E+00  0.00000000E+00  0.00000000E+00
  0.00000000E+00  0.00000000E+00  0.00000000E+00  0.00000000E+00  0.00000000E+00
  0.00000000E+00  0.00000000E+00  0.00000000E+00  0.00000000E+00  0.00000000E+00
  0.00000000E+00  0.00000000E+00  0.00000000E+00  0.00000000E+00  0.00000000E+00
MxBond                                     I                4
NBond                                      I   N=           5
           4           1           1           1           1
IBond                                      I   N=          20
           2           3           4           5           1           0
           0           0           1           0           0           0
           1           0           0           0           1           0
           0           0
RBond                                      R   N=          20
  1.00000000E+00  1.00000000E+00  1.00000000E+00  1.00000000E+00  1.00000000E+00
  0.00000000E+00  0.00000000E+00  0.00000000E+00  1.00000000E+00  0.00000000E+00
  0.00000000E+00  0.00000000E+00  1.00000000E+00  0.00000000E+00  0.00000000E+00
  0.00000000E+00  1.00000000E+00  0.00000000E+00  0.00000000E+00  0.00000000E+00
Shell types                                I   N=          34
           0           0           0           0           1           1
           1          -2          -2          -3           0           0
           0           1           1          -2           0           0
           0           1           1          -2           0           0
           0           1           1          -2           0           0
           0           1           1          -2
Number of primitives per shell             I   N=          34
           7           7           1           1           3           1
           1           1           1           1           3           1
           1           1           1           1           3           1
           1           1           1           1           3           1
           1           1           1           1           3           1
           1           1           1           1
Shell to atom map                          I   N=          34
           1           1           1           1           1           1
           1           1           1           1           2           2
           2           2           2           2           3           3
           3           3           3           3           4           4
           4           4           4           4           5           5
           5           5           5           5
Primitive exponents                        R   N=          56
  8.23600000E+03  1.23500000E+03  2.80800000E+02  7.92700000E+01  2.55900000E+01
  8.99700000E+00  3.31900000E+00  8.23600000E+03  1.23500000E+03  2.80800000E+02
  2.55900000E+01  8.99700000E+00  3.31900000E+00  3.64300000E-01  9.05900000E-01
  1.28500000E-01  1.87100000E+01  4.13300000E+00  1.20000000E+00  3.82700000E-01
  1.20900000E-01  1.09700000E+00  3.18000000E-01  7.61000000E-01  3.38700000E+01
  5.09500000E+00  1.15900000E+00  3.25800000E-01  1.02700000E-01  1.40700000E+00
  3.88000000E-01  1.05700000E+00  3.38700000E+01  5.09500000E+00  1.15900000E+00
  3.25800000E-01  1.02700000E-01  1.40700000E+00  3.88000000E-01  1.05700000E+00
  3.38700000E+01  5.09500000E+00  1.15900000E+00  3.25800000E-01  1.02700000E-01
  1.40700000E+00  3.88000000E-01  1.05700000E+00  3.38700000E+01  5.09500000E+00
  1.15900000E+00  3.25800000E-01  1.02700000E-01  1.40700000E+00  3.88000000E-01
  1.05700000E+00
Contraction coefficients                   R   N=          56
  5.41978320E-04  4.19287382E-03  2.15221621E-02  8.35343220E-02  2.39582846E-01
  4.42852842E-01  3.51799562E-01  8.31820297E-06  5.75428976E-05  2.35967292E-04
 -6.71596546E-03 -5.50492638E-02 -1.68179886E-01  1.07129359E+00  1.00000000E+00
  1.00000000E+00  3.94263872E-02  2.44088985E-01  8.15492009E-01  1.00000000E+00
  1.00000000E+00  1.00000000E+00  1.00000000E+00  1.00000000E+00  2.54948632E-02
  1.90362766E-01  8.52162022E-01  1.00000000E+00  1.00000000E+00  1.00000000E+00
  1.00000000E+00  1.00000000E+00  2.54948632E-02  1.90362766E-01  8.52162022E-01
  1.00000000E+00  1.00000000E+00  1.00000000E+00  1.00000000E+00  1.00000000E+00
  2.54948632E-02  1.90362766E-01  8.52162022E-01  1.00000000E+00  1.00000000E+00
  1.00000000E+00  1.00000000E+00  1.00000000E+00  2.54948632E-02  1.90362766E-01
  8.52162022E-01  1.00000000E+00  1.00000000E+00  1.00000000E+00  1.00000000E+00
  1.00000000E+00
Coordinates of each shell                  R   N=         102
  0.00000000E+00  0.00000000E+00  0.00000000E+00  0.00000000E+00  0.00000000E+00
  0.00000000E+00  0.00000000E+00  0.00000000E+00  0.00000000E+00  0.00000000E+00
  0.00000000E+00  0.00000000E+00  0.00000000E+00  0.00000000E+00  0.00000000E+00
  0.00000000E+00  0.00000000E+00  0.00000000E+00  0.00000000E+00  0.00000000E+00
  0.00000000E+00  0.00000000E+00  0.00000000E+00  0.00000000E+00  0.00000000E+00
  0.00000000E+00  0.00000000E+00  0.00000000E+00  0.00000000E+00  0.00000000E+00
  1.19309420E+00  1.19309420E+00  1.19309420E+00  1.19309420E+00  1.19309420E+00
  1.19309420E+00  1.19309420E+00  1.19309420E+00  1.19309420E+00  1.19309420E+00
  1.19309420E+00  1.19309420E+00  1.19309420E+00  1.19309420E+00  1.19309420E+00
  1.19309420E+00  1.19309420E+00  1.19309420E+00 -1.19309420E+00 -1.19309420E+00
  1.19309420E+00 -1.19309420E+00 -1.19309420E+00  1.19309420E+00 -1.19309420E+00
 -1.19309420E+00  1.19309420E+00 -1.19309420E+00 -1.19309420E+00  1.19309420E+00
 -1.19309420E+00 -1.19309420E+00  1.19309420E+00 -1.19309420E+00 -1.19309420E+00
  1.19309420E+00  1.19309420E+00 -1.19309420E+00 -1.19309420E+00  1.19309420E+00
 -1.19309420E+00 -1.19309420E+00  1.19309420E+00 -1.19309420E+00 -1.19309420E+00
  1.19309420E+00 -1.19309420E+00 -1.19309420E+00  1.19309420E+00 -1.19309420E+00
 -1.19309420E+00  1.19309420E+00 -1.19309420E+00 -1.19309420E+00 -1.19309420E+00
  1.19309420E+00 -1.19309420E+00 -1.19309420E+00  1.19309420E+00 -1.19309420E+00
 -1.19309420E+00  1.19309420E+00 -1.19309420E+00 -1.19309420E+00  1.19309420E+00
 -1.19309420E+00 -1.19309420E+00  1.19309420E+00 -1.19309420E+00 -1.19309420E+00
  1.19309420E+00 -1.19309420E+00
Alpha Orbital Energies                     R   N=          86
 -1.12090218E+01 -9.40941459E-01 -5.43613621E-01 -5.43613621E-01 -5.43613621E-01
  1.43158377E-01  2.28950266E-01  2.28950266E-01  2.28950266E-01  3.64618955E-01
  3.64618955E-01  3.64618955E-01  6.39779883E-01  6.45768144E-01  6.45768144E-01
  6.45768144E-01  6.83590501E-01  6.83590501E-01  7.54919985E-01  1.07331891E+00
  1.07331891E+00  1.07331891E+00  1.15835460E+00  1.15835460E+00  1.15835460E+00
  1.31781494E+00  1.31781494E+00  1.31781494E+00  1.53310721E+00  1.53310721E+00
  1.53310721E+00  1.59674923E+00  1.59674923E+00  1.79910447E+00  2.42687609E+00
  2.42687609E+00  2.42687609E+00  2.56815882E+00  2.98808017E+00  2.98808017E+00
  2.98808017E+00  3.13592332E+00  3.13592332E+00  3.13592332E+00  3.13812749E+00
  3.13812749E+00  3.30649403E+00  3.30649403E+00  3.30649403E+00  3.61496516E+00
  3.61496516E+00  3.61496516E+00  3.73177304E+00  3.73177304E+00  3.73177304E+00
  3.79772967E+00  3.79772967E+00  3.86833471E+00  4.09454861E+00  4.09454861E+00
  4.09454861E+00  4.12125947E+00  4.12125947E+00  4.37870813E+00  4.37870813E+00
  4.37870813E+00  4.52484249E+00  4.52484249E+00  4.52484249E+00  4.82182443E+00
  5.04350022E+00  5.04350022E+00  5.04350022E+00  5.47837739E+00  5.47837739E+00
  5.47837739E+00  5.49840972E+00  5.49840972E+00  5.49840972E+00  5.55211613E+00
  5.62156196E+00  5.62156196E+00  6.20557009E+00  6.20557009E+00  6.20557009E+00
  1.43984478E+01
Alpha MO coefficients                      R   N=        7396
  9.78827136E-01 -6.52591145E-03  4.13059905E-02  5.97424298E-03  0.00000000E+00
  0.00000000E+00  0.00000000E+00  0.00000000E+00  0.00000000E+00  0.00000000E+00
  0.00000000E+00  0.00000000E+00  0.00000000E+00 -5.71629502E-17  0.00000000E+00
  0.00000000E+00  3.00065897E-17  0.00000000E+00  1.41904463E-15  0.00000000E+00
  0.00000000E+00 -5.80655608E-16  0.00000000E+00  0.00000000E+00  0.00000000E+00
  0.00000000E+00  0.00000000E+00  9.15635410E-04  0.00000000E+00  0.00000000E+00
  1.44027069E-04 -6.41254644E-04 -7.38834849E-04  1.92899955E-04  1.92899955E-04
  1.92899955E-04  1.78415046E-04  1.78415046E-04  1.78415046E-04  8.29603928E-17
 -1.59750409E-04 -1.59750409E-04  4.47092112E-17 -1.59750409E-04  1.44027069E-04
 -6.41254644E-04 -7.38834849E-04 -1.92899955E-04 -1.92899955E-04  1.92899955E-04
 -1.78415046E-04 -1.78415046E-04  1.78415046E-04  8.29603928E-17  1.59750409E-04
  1.59750409E-04  4.47092112E-17 -1.59750409E-04  1.44027069E-04 -6.41254644E-04
 -7.38834849E-04  1.92899955E-04 -1.92899955E-04 -1.92899955E-04  1.78415046E-04
 -1.78415046E-04 -1.78415046E-04  8.29603928E-17  1.59750409E-04 -1.59750409E-04
  4.47092112E-17  1.59750409E-04  1.44027069E-04 -6.41254644E-04 -7.38834849E-04
 -1.92899955E-04  1.92899955E-04 -1.92899955E-04 -1.78415046E-04  1.78415046E-04
 -1.78415046E-04  8.29603928E-17 -1.59750409E-04  1.59750409E-04  4.47092112E-17
  1.59750409E-04 -1.83669030E-01  4.34474834E-01  8.89715078E-02  1.96685727E-01
  0.00000000E+00  0.00000000E+00  0.00000000E+00  0.00000000E+00  0.00000000E+00
  0.00000000E+00  0.00000000E+00  0.00000000E+00  0.00000000E+00 -6.14664675E-16
  0.00000000E+00  0.00000000E+00  2.10746252E-16  0.00000000E+00  1.87414829E-14
  0.00000000E+00  0.00000000E+00  1.23914830E-15  0.00000000E+00  0.00000000E+00
  0.00000000E+00  0.00000000E+00  0.00000000E+00  9.56447681E-03  0.00000000E+00
  0.00000000E+00  8.16710568E-02  9.01848272E-02  1.24776043E-02 -4.49489834E-03
 -4.49489834E-03 -4.49489834E-03 -1.39885929E-03 -1.39885929E-03 -1.39885929E-03
  7.48522160E-16  5.83336653E-04  5.83336653E-04  1.78793166E-16  5.83336653E-04
  8.16710568E-02  9.01848272E-02  1.24776043E-02  4.49489834E-03  4.49489834E-03
 -4.49489834E-03  1.39885929E-03  1.39885929E-03 -1.39885929E-03  7.48522160E-16
 -5.83336653E-04 -5.83336653E-04  1.78793166E-16  5.83336653E-04  8.16710568E-02
  9.01848272E-02  1.24776043E-02 -4.49489834E-03  4.49489834E-03  4.49489834E-03
 -1.39885929E-03  1.39885929E-03  1.39885929E-03  7.48522160E-16 -5.83336653E-04
  5.83336653E-04  1.78793166E-16 -5.83336653E-04  8.16710568E-02  9.01848272E-02
  1.24776043E-02  4.49489834E-03 -4.49489834E-03  4.49489834E-03  1.39885929E-03
 -1.39885929E-03  1.39885929E-03  7.48522160E-16  5.83336653E-04 -5.83336653E-04
  1.78793166E-16 -5.83336653E-04  0.00000000E+00  0.00000000E+00  0.00000000E+00
  0.00000000E+00  0.00000000E+00  0.00000000E+00  2.34644144E-01  0.00000000E+00
  0.00000000E+00  2.85470621E-01  0.00000000E+00  0.00000000E+00  1.38274924E-01
  0.00000000E+00  0.00000000E+00  0.00000000E+00  0.00000000E+00  1.78703263E-02
  0.00000000E+00  0.00000000E+00  0.00000000E+00  0.00000000E+00  2.03521399E-02
 -6.23603986E-04  0.00000000E+00  0.00000000E+00  5.64458980E-16  0.00000000E+00
  0.00000000E+00  0.00000000E+00  1.00417923E-01  1.60982509E-01  7.23916192E-02
 -6.40579647E-03 -6.40579647E-03 -1.64116272E-03 -9.79972141E-03 -9.79972141E-03
  9.61690122E-04 -1.26178773E-03  1.04952424E-03  1.04952424E-03  2.23945307E-16
  2.28502894E-03  1.00417923E-01  1.60982509E-01  7.23916192E-02  6.40579647E-03
  6.40579647E-03 -1.64116272E-03  9.79972141E-03  9.79972141E-03  9.61690122E-04
 -1.26178773E-03 -1.04952424E-03 -1.04952424E-03  2.23945307E-16  2.28502894E-03
 -1.00417923E-01 -1.60982509E-01 -7.23916192E-02  6.40579647E-03 -6.40579647E-03
 -1.64116272E-03  9.79972141E-03 -9.79972141E-03  9.61690122E-04  1.26178773E-03
  1.04952424E-03 -1.04952424E-03 -2.23945307E-16  2.28502894E-03 -1.00417923E-01
 -1.60982509E-01 -7.23916192E-02 -6.40579647E-03  6.40579647E-03 -1.64116272E-03
 -9.79972141E-03  9.79972141E-03  9.61690122E-04  1.26178773E-03 -1.04952424E-03
  1.04952424E-03 -2.23945307E-16  2.28502894E-03  0.00000000E+00  0.00000000E+00
  0.00000000E+00  0.00000000E+00  2.34644144E-01  0.00000000E+00  0.00000000E+00
  2.85470621E-01  0.00000000E+00  0.00000000E+00  1.38274924E-01  0.00000000E+00
  0.00000000E+00  0.00000000E+00  0.00000000E+00  1.78703263E-02  0.00000000E+00
  0.00000000E+00  0.00000000E+00  0.00000000E+00  2.03521399E-02  0.00000000E+00
  0.00000000E+00  0.00000000E+00  3.81877892E-04  0.00000000E+00  0.00000000E+00
  0.00000000E+00 -4.93002238E-04  0.00000000E+00  1.00417923E-01  1.60982509E-01
  7.23916192E-02 -1.64116272E-03 -6.40579647E-03 -6.40579647E-03  9.61690122E-04
 -9.79972141E-03 -9.79972141E-03  6.30893866E-04  1.04952424E-03  2.28502894E-03
 -1.09274023E-03  1.04952424E-03 -1.00417923E-01 -1.60982509E-01 -7.23916192E-02
 -1.64116272E-03 -6.40579647E-03  6.40579647E-03  9.61690122E-04 -9.79972141E-03
  9.79972141E-03 -6.30893866E-04  1.04952424E-03  2.28502894E-03  1.09274023E-03
 -1.04952424E-03  1.00417923E-01  1.60982509E-01  7.23916192E-02 -1.64116272E-03
  6.40579647E-03  6.40579647E-03  9.61690122E-04  9.79972141E-03  9.79972141E-03
  6.30893866E-04 -1.04952424E-03  2.28502894E-03 -1.09274023E-03 -1.04952424E-03
 -1.00417923E-01 -1.60982509E-01 -7.23916192E-02 -1.64116272E-03  6.40579647E-03
 -6.40579647E-03  9.61690122E-04  9.79972141E-03 -9.79972141E-03 -6.30893866E-04
 -1.04952424E-03  2.28502894E-03  1.09274023E-03  1.04952424E-03  0.00000000E+00
  0.00000000E+00  0.00000000E+00  0.00000000E+00  0.00000000E+00  2.34644144E-01
  0.00000000E+00  0.00000000E+00  2.85470621E-01  0.00000000E+00  0.00000000E+00
  1.38274924E-01  0.00000000E+00  0.00000000E+00  1.78703263E-02  0.00000000E+00
  0.00000000E+00  0.00000000E+00  0.00000000E+00  2.03521399E-02  0.00000000E+00
  0.00000000E+00  0.00000000E+00  0.00000000E+00  0.00000000E+00  3.81877892E-04
  0.00000000E+00  0.00000000E+00  0.00000000E+00  4.93002238E-04  1.00417923E-01
  1.60982509E-01  7.23916192E-02 -6.40579647E-03 -1.64116272E-03 -6.40579647E-03
 -9.79972141E-03  9.61690122E-04 -9.79972141E-03  6.30893866E-04  2.28502894E-03
  1.04952424E-03  1.09274023E-03  1.04952424E-03 -1.00417923E-01 -1.60982509E-01
 -7.23916192E-02 -6.40579647E-03 -1.64116272E-03  6.40579647E-03 -9.79972141E-03
  9.61690122E-04  9.79972141E-03 -6.30893866E-04  2.28502894E-03  1.04952424E-03
 -1.09274023E-03 -1.04952424E-03 -1.00417923E-01 -1.60982509E-01 -7.23916192E-02
  6.40579647E-03 -1.64116272E-03 -6.40579647E-03  9.79972141E-03  9.61690122E-04
 -9.79972141E-03 -6.30893866E-04  2.28502894E-03 -1.04952424E-03 -1.09274023E-03
  1.04952424E-03  1.00417923E-01  1.60982509E-01  7.23916192E-02  6.40579647E-03
 -1.64116272E-03  6.40579647E-03  9.79972141E-03  9.61690122E-04  9.79972141E-03
  6.30893866E-04  2.28502894E-03 -1.04952424E-03  1.09274023E-03 -1.04952424E-03
 -7.48478278E-02  2.75602125E-01  4.88804097E-02  3.76333390E+00  0.00000000E+00
  0.00000000E+00  0.00000000E+00  0.00000000E+00  0.00000000E+00  0.00000000E+00
  0.00000000E+00  0.00000000E+00  0.00000000E+00  1.82484935E-14  0.00000000E+00
  0.00000000E+00  1.09919203E-16  0.00000000E+00  7.03828012E-14  0.00000000E+00
  0.00000000E+00  1.01673449E-14  0.00000000E+00  0.00000000E+00  0.00000000E+00
  0.00000000E+00  0.00000000E+00  2.90210869E-02  0.00000000E+00  0.00000000E+00
  5.52286736E-03 -2.42606912E-01 -1.11682329E+00 -7.02905490E-03 -7.02905490E-03
 -7.02905490E-03  9.30893041E-02  9.30893041E-02  9.30893041E-02  5.93899790E-15
 -5.51111240E-03 -5.51111240E-03  9.92720024E-16 -5.51111240E-03  5.52286736E-03
 -2.42606912E-01 -1.11682329E+00  7.02905490E-03  7.02905490E-03 -7.02905490E-03
 -9.30893041E-02 -9.30893041E-02  9.30893041E-02  5.93899790E-15  5.51111240E-03
  5.51111240E-03  9.92720024E-16 -5.51111240E-03  5.52286736E-03 -2.42606912E-01
 -1.11682329E+00 -7.02905490E-03  7.02905490E-03  7.02905490E-03  9.30893041E-02
 -9.30893041E-02 -9.30893041E-02  5.93899790E-15  5.51111240E-03 -5.51111240E-03
  9.92720024E-16  5.51111240E-03  5.52286736E-03 -2.42606912E-01 -1.11682329E+00
  7.02905490E-03 -7.02905490E-03  7.02905490E-03 -9.30893041E-02  9.30893041E-02
 -9.30893041E-02  5.93899790E-15 -5.51111240E-03  5.51111240E-03  9.92720024E-16
  5.51111240E-03  0.00000000E+00  0.00000000E+00  0.00000000E+00  0.00000000E+00
  0.00000000E+00  0.00000000E+00  1.32021840E-01  0.00000000E+00  0.00000000E+00
  4.13580018E-01  0.00000000E+00  0.00000000E+00  1.80376536E+00  0.00000000E+00
  0.00000000E+00  0.00000000E+00  0.00000000E+00 -3.27248668E-03  0.00000000E+00
  0.00000000E+00  0.00000000E+00  0.00000000E+00  1.59416417E-01 -3.09776748E-03
  0.00000000E+00  0.00000000E+00 -3.52522972E-16  0.00000000E+00  0.00000000E+00
  0.00000000E+00 -9.67870756E-03 -1.46764722E-01 -1.73202497E+00 -1.20024199E-02
 -1.20024199E-02 -8.67645859E-04  9.60065687E-02  9.60065687E-02  6.03110889E-02
 -1.18407132E-03 -4.11432777E-03 -4.11432777E-03 -5.12201629E-16 -6.53834164E-03
 -9.67870756E-03 -1.46764722E-01 -1.73202497E+00  1.20024199E-02  1.20024199E-02
 -8.67645859E-04 -9.60065687E-02 -9.60065687E-02  6.03110889E-02 -1.18407132E-03
  4.11432777E-03  4.11432777E-03 -5.12201629E-16 -6.53834164E-03  9.67870756E-03
  1.46764722E-01  1.73202497E+00  1.20024199E-02 -1.20024199E-02 -8.67645859E-04
 -9.60065687E-02  9.60065687E-02  6.03110889E-02  1.18407132E-03 -4.11432777E-03
  4.11432777E-03  5.12201629E-16 -6.53834164E-03  9.67870756E-03  1.46764722E-01
  1.73202497E+00 -1.20024199E-02  1.20024199E-02 -8.67645859E-04  9.60065687E-02
 -9.60065687E-02  6.03110889E-02  1.18407132E-03  4.11432777E-03 -4.11432777E-03
  5.12201629E-16 -6.53834164E-03  0.00000000E+00  0.00000000E+00  0.00000000E+00
  0.00000000E+00  0.00000000E+00  1.32021840E-01  0.00000000E+00  0.00000000E+00
  4.13580018E-01  0.00000000E+00  0.00000000E+00  1.80376536E+00  0.00000000E+00
  0.00000000E+00 -3.27248668E-03  0.00000000E+00  0.00000000E+00  0.00000000E+00
  0.00000000E+00  1.59416417E-01  0.00000000E+00  0.00000000E+00  0.00000000E+00
  0.00000000E+00  0.00000000E+00  1.89698741E-03  0.00000000E+00  0.00000000E+00
  0.00000000E+00  2.44900022E-03 -9.67870756E-03 -1.46764722E-01 -1.73202497E+00
 -1.20024199E-02 -8.67645859E-04 -1.20024199E-02  9.60065687E-02  6.03110889E-02
  9.60065687E-02  5.92035662E-04 -6.53834164E-03 -4.11432777E-03  1.02543585E-03
 -4.11432777E-03  9.67870756E-03  1.46764722E-01  1.73202497E+00 -1.20024199E-02
 -8.67645859E-04  1.20024199E-02  9.60065687E-02  6.03110889E-02 -9.60065687E-02
 -5.92035662E-04 -6.53834164E-03 -4.11432777E-03 -1.02543585E-03  4.11432777E-03
  9.67870756E-03  1.46764722E-01  1.73202497E+00  1.20024199E-02 -8.67645859E-04
 -1.20024199E-02 -9.60065687E-02  6.03110889E-02  9.60065687E-02 -5.92035662E-04
 -6.53834164E-03  4.11432777E-03 -1.02543585E-03 -4.11432777E-03 -9.67870756E-03
 -1.46764722E-01 -1.73202497E+00  1.20024199E-02 -8.67645859E-04  1.20024199E-02
 -9.60065687E-02  6.03110889E-02 -9.60065687E-02  5.92035662E-04 -6.53834164E-03
  4.11432777E-03  1.02543585E-03  4.11432777E-03  0.00000000E+00  0.00000000E+00
  0.00000000E+00  0.00000000E+00  1.32021840E-01  0.00000000E+00  0.00000000E+00
  4.13580018E-01  0.00000000E+00  0.00000000E+00  1.80376536E+00  0.00000000E+00
  0.00000000E+00  0.00000000E+00  0.00000000E+00 -3.27248668E-03  0.00000000E+00
  0.00000000E+00  0.00000000E+00  0.00000000E+00  1.59416417E-01  0.00000000E+00
  0.00000000E+00  0.00000000E+00  1.89698741E-03  0.00000000E+00  0.00000000E+00
  0.00000000E+00 -2.44900022E-03  0.00000000E+00 -9.67870756E-03 -1.46764722E-01
 -1.73202497E+00 -8.67645859E-04 -1.20024199E-02 -1.20024199E-02  6.03110889E-02
  9.60065687E-02  9.60065687E-02  5.92035662E-04 -4.11432777E-03 -6.53834164E-03
 -1.02543585E-03 -4.11432777E-03  9.67870756E-03  1.46764722E-01  1.73202497E+00
 -8.67645859E-04 -1.20024199E-02  1.20024199E-02  6.03110889E-02  9.60065687E-02
 -9.60065687E-02 -5.92035662E-04 -4.11432777E-03 -6.53834164E-03  1.02543585E-03
  4.11432777E-03 -9.67870756E-03 -1.46764722E-01 -1.73202497E+00 -8.67645859E-04
  1.20024199E-02  1.20024199E-02  6.03110889E-02 -9.60065687E-02 -9.60065687E-02
  5.92035662E-04  4.11432777E-03 -6.53834164E-03 -1.02543585E-03  4.11432777E-03
  9.67870756E-03  1.46764722E-01  1.73202497E+00 -8.67645859E-04  1.20024199E-02
 -1.20024199E-02  6.03110889E-02 -9.60065687E-02  9.60065687E-02 -5.92035662E-04
  4.11432777E-03 -6.53834164E-03  1.02543585E-03 -4.11432777E-03  0.00000000E+00
  0.00000000E+00  0.00000000E+00  0.00000000E+00  0.00000000E+00  0.00000000E+00
 -8.70058644E-02  0.00000000E+00  0.00000000E+00  5.57985351E-01  0.00000000E+00
  0.00000000E+00  2.31793713E+00  0.00000000E+00  0.00000000E+00  0.00000000E+00
  0.00000000E+00 -3.64163865E-03  0.00000000E+00  0.00000000E+00  0.00000000E+00
  0.00000000E+00  5.44027641E-01 -5.50759854E-02  0.00000000E+00  0.00000000E+00
 -4.53626067E-16  0.00000000E+00  0.00000000E+00  0.00000000E+00 -2.43456103E-02
 -1.18324267E+00 -4.00394037E-01  5.48696519E-03  5.48696519E-03  2.47357766E-02
  1.72250177E-01  1.72250177E-01  1.30409167E-01 -5.92468030E-03 -1.11888458E-02
 -1.11888458E-02 -6.73214541E-16 -2.10832821E-02 -2.43456103E-02 -1.18324267E+00
 -4.00394037E-01 -5.48696519E-03 -5.48696519E-03  2.47357766E-02 -1.72250177E-01
 -1.72250177E-01  1.30409167E-01 -5.92468030E-03  1.11888458E-02  1.11888458E-02
 -6.73214541E-16 -2.10832821E-02  2.43456103E-02  1.18324267E+00  4.00394037E-01
 -5.48696519E-03  5.48696519E-03  2.47357766E-02 -1.72250177E-01  1.72250177E-01
  1.30409167E-01  5.92468030E-03 -1.11888458E-02  1.11888458E-02  6.73214541E-16
 -2.10832821E-02  2.43456103E-02  1.18324267E+00  4.00394037E-01  5.48696519E-03
 -5.48696519E-03  2.47357766E-02  1.72250177E-01 -1.72250177E-01  1.30409167E-01
  5.92468030E-03  1.11888458E-02 -1.11888458E-02  6.73214541E-16 -2.10832821E-02
  0.00000000E+00  0.00000000E+00  0.00000000E+00  0.00000000E+00 -8.70058644E-02
  0.00000000E+00  0.00000000E+00  5.57985351E-01  0.00000000E+00  0.00000000E+00
  2.31793713E+00  0.00000000E+00  0.00000000E+00  0.00000000E+00  0.00000000E+00
 -3.64163865E-03  0.00000000E+00  0.00000000E+00  0.00000000E+00  0.00000000E+00
  5.44027641E-01  0.00000000E+00  0.00000000E+00  0.00000000E+00  3.37270154E-02
  0.00000000E+00  0.00000000E+00  0.00000000E+00 -4.35413896E-02  0.00000000E+00
 -2.43456103E-02 -1.18324267E+00 -4.00394037E-01  2.47357766E-02  5.48696519E-03
  5.48696519E-03  1.30409167E-01  1.72250177E-01  1.72250177E-01  2.96234015E-03
 -1.11888458E-02 -2.10832821E-02 -5.13092365E-03 -1.11888458E-02  2.43456103E-02
  1.18324267E+00  4.00394037E-01  2.47357766E-02  5.48696519E-03 -5.48696519E-03
  1.30409167E-01  1.72250177E-01 -1.72250177E-01 -2.96234015E-03 -1.11888458E-02
 -2.10832821E-02  5.13092365E-03  1.11888458E-02 -2.43456103E-02 -1.18324267E+00
 -4.00394037E-01  2.47357766E-02 -5.48696519E-03 -5.48696519E-03  1.30409167E-01
 -1.72250177E-01 -1.72250177E-01  2.96234015E-03  1.11888458E-02 -2.10832821E-02
 -5.13092365E-03  1.11888458E-02  2.43456103E-02  1.18324267E+00  4.00394037E-01
  2.47357766E-02 -5.48696519E-03  5.48696519E-03  1.30409167E-01 -1.72250177E-01
  1.72250177E-01 -2.96234015E-03  1.11888458E-02 -2.10832821E-02  5.13092365E-03
 -1.11888458E-02  0.00000000E+00  0.00000000E+00  0.00000000E+00  0.00000000E+00
  0.00000000E+00 -8.70058644E-02  0.00000000E+00  0.00000000E+00  5.57985351E-01