 argument  1 = NH3-cc-pvdz.inp
                                         
                                         


              Northwest Computational Chemistry Package (NWChem) 6.6
              ------------------------------------------------------


                    Environmental Molecular Sciences Laboratory
                       Pacific Northwest National Laboratory
                                Richland, WA 99352

                              Copyright (c) 1994-2015
                       Pacific Northwest National Laboratory
                            Battelle Memorial Institute

             NWChem is an open-source computational chemistry package
                        distributed under the terms of the
                      Educational Community License (ECL) 2.0
             A copy of the license is included with this distribution
                              in the LICENSE.TXT file

                                  ACKNOWLEDGMENT
                                  --------------

            This software and its documentation were developed at the
            EMSL at Pacific Northwest National Laboratory, a multiprogram
            national laboratory, operated for the U.S. Department of Energy
            by Battelle under Contract Number DE-AC05-76RL01830. Support
            for this work was provided by the Department of Energy Office
            of Biological and Environmental Research, Office of Basic
            Energy Sciences, and the Office of Advanced Scientific Computing.


           Job information
           ---------------

    hostname        = localhost.localdomain
    program         = nwchem
    date            = Wed Jan 11 18:04:15 2017

    compiled        = Tue_Jan_03_15:41:25_2017
    source          = /scratch/soft-red/nwchem-6.6
    nwchem branch   = 6.6
    nwchem revision = 27746
    ga revision     = 10594
    input           = NH3-cc-pvdz.inp
    prefix          = NH3-cc-pvdz.
    data base       = ./NH3-cc-pvdz.db
    status          = startup
    nproc           =        1
    time left       =     -1s



           Memory information
           ------------------

    heap     =   13107196 doubles =    100.0 Mbytes
    stack    =   13107201 doubles =    100.0 Mbytes
    global   =   26214400 doubles =    200.0 Mbytes (distinct from heap & stack)
    total    =   52428797 doubles =    400.0 Mbytes
    verify   = yes
    hardfail = no 


           Directory information
           ---------------------

  0 permanent = .
  0 scratch   = .




                                NWChem Input Module
                                -------------------


                                  NH3 cc-pvdz SCF
                                  ---------------
 C3V symmetry detected

          ------
          auto-z
          ------
  Looking for out-of-plane bends


                             Geometry "geometry" -> ""
                             -------------------------

 Output coordinates in a.u. (scale by  1.000000000 to convert to a.u.)

  No.       Tag          Charge          X              Y              Z
 ---- ---------------- ---------- -------------- -------------- --------------
    1 n                    7.0000     0.00000000     0.00000000    -0.12784633
    2 h                    1.0000     1.25582174     1.25582174     0.59211373
    3 h                    1.0000     0.45966266    -1.71548440     0.59211373
    4 h                    1.0000    -1.71548440     0.45966266     0.59211373

      Atomic Mass 
      ----------- 

      n                 14.003070
      h                  1.007825


 Effective nuclear repulsion energy (a.u.)      11.9334045363

            Nuclear Dipole moment (a.u.) 
            ----------------------------
        X                 Y               Z
 ---------------- ---------------- ----------------
     0.0000000000     0.0000000000     0.8814169011

      Symmetry information
      --------------------

 Group name             C3v       
 Group number             17
 Group order               6
 No. of unique centers     2

      Symmetry unique atoms

     1    2



                                Z-matrix (autoz)
                                -------- 

 Units are Angstrom for bonds and degrees for angles

      Type          Name      I     J     K     L     M      Value
      ----------- --------  ----- ----- ----- ----- ----- ----------
    1 Stretch                  1     2                       1.01411
    2 Stretch                  1     3                       1.01411
    3 Stretch                  1     4                       1.01411
    4 Bend                     2     1     3               106.75553
    5 Bend                     2     1     4               106.75553
    6 Bend                     3     1     4               106.75553


            XYZ format geometry
            -------------------
     4
 geometry
 n                     0.00000000     0.00000000    -0.06765337
 h                     0.66455229     0.66455229     0.31333311
 h                     0.24324302    -0.90779531     0.31333311
 h                    -0.90779531     0.24324302     0.31333311

 ==============================================================================
                                internuclear distances
 ------------------------------------------------------------------------------
       center one      |      center two      | atomic units |       a.u.
 ------------------------------------------------------------------------------
    2 h                |   1 n                |     1.91638  |     1.91638
    3 h                |   1 n                |     1.91638  |     1.91638
    4 h                |   1 n                |     1.91638  |     1.91638
 ------------------------------------------------------------------------------
                         number of included internuclear distances:          3
 ==============================================================================



 ==============================================================================
                                 internuclear angles
 ------------------------------------------------------------------------------
        center 1       |       center 2       |       center 3       |  degrees
 ------------------------------------------------------------------------------
    2 h                |   1 n                |   3 h                |   106.76
    2 h                |   1 n                |   4 h                |   106.76
    3 h                |   1 n                |   4 h                |   106.76
 ------------------------------------------------------------------------------
                            number of included internuclear angles:          3
 ==============================================================================



                      Basis "ao basis" -> "" (spherical)
                      -----
  n (Nitrogen)
  ------------
            Exponent  Coefficients 
       -------------- ---------------------------------------------------------
  1 S  9.04600000E+03  0.000700
  1 S  1.35700000E+03  0.005389
  1 S  3.09300000E+02  0.027406
  1 S  8.77300000E+01  0.103207
  1 S  2.85600000E+01  0.278723
  1 S  1.02100000E+01  0.448540
  1 S  3.83800000E+00  0.278238
  1 S  7.46600000E-01  0.015440

  2 S  9.04600000E+03 -0.000153
  2 S  1.35700000E+03 -0.001208
  2 S  3.09300000E+02 -0.005992
  2 S  8.77300000E+01 -0.024544
  2 S  2.85600000E+01 -0.067459
  2 S  1.02100000E+01 -0.158078
  2 S  3.83800000E+00 -0.121831
  2 S  7.46600000E-01  0.549003

  3 S  2.24800000E-01  1.000000

  4 P  1.35500000E+01  0.039919
  4 P  2.91700000E+00  0.217169
  4 P  7.97300000E-01  0.510319

  5 P  2.18500000E-01  1.000000

  6 D  8.17000000E-01  1.000000

  h (Hydrogen)
  ------------
            Exponent  Coefficients 
       -------------- ---------------------------------------------------------
  1 S  1.30100000E+01  0.019685
  1 S  1.96200000E+00  0.137977
  1 S  4.44600000E-01  0.478148

  2 S  1.22000000E-01  1.000000

  3 P  7.27000000E-01  1.000000



 Summary of "ao basis" -> "" (spherical)
 ------------------------------------------------------------------------------
       Tag                 Description            Shells   Functions and Types
 ---------------- ------------------------------  ------  ---------------------
 n                          cc-pvdz                  6       14   3s2p1d
 h                          cc-pvdz                  3        5   2s1p


                                 NWChem SCF Module
                                 -----------------


                                  NH3 cc-pvdz SCF



  ao basis        = "ao basis"
  functions       =    29
  atoms           =     4
  closed shells   =     5
  open shells     =     0
  charge          =   0.00
  wavefunction    = RHF 
  input vectors   = atomic
  output vectors  = ./NH3-cc-pvdz.movecs
  use symmetry    = T
  symmetry adapt  = T


 Summary of "ao basis" -> "ao basis" (spherical)
 ------------------------------------------------------------------------------
       Tag                 Description            Shells   Functions and Types
 ---------------- ------------------------------  ------  ---------------------
 n                          cc-pvdz                  6       14   3s2p1d
 h                          cc-pvdz                  3        5   2s1p


      Symmetry analysis of basis
      --------------------------

        a1         10
        a2          1
        e          18


 Forming initial guess at       0.0s


      Superposition of Atomic Density Guess
      -------------------------------------

 Sum of atomic energies:         -55.79786015

      Non-variational initial energy
      ------------------------------

 Total energy =     -56.206352
 1-e energy   =     -98.211758
 2-e energy   =      30.072002
 HOMO         =      -0.372418
 LUMO         =       0.095429


      Symmetry analysis of molecular orbitals - initial
      -------------------------------------------------

  Numbering of irreducible representations: 

     1 a1          2 a2          3 e       

  Orbital symmetries:

     1 a1          2 a1          3 e           4 e           5 a1      
     6 a1          7 e           8 e           9 e          10 e       
    11 a1         12 a1         13 e          14 e          15 e       


 Starting SCF solution at       0.1s



 ----------------------------------------------
         Quadratically convergent ROHF

 Convergence threshold     :          1.000E-04
 Maximum no. of iterations :           30
 Final Fock-matrix accuracy:          1.000E-07
 ----------------------------------------------


 #quartets = 2.250D+03 #integrals = 2.960D+04 #direct =  0.0% #cached =100.0%


 Integral file          = ./NH3-cc-pvdz.aoints.0
 Record size in doubles =  65536        No. of integs per rec  =  43688
 Max. records in memory =      2        Max. records in file   = 155723
 No. of bits per label  =      8        No. of bits per value  =     64


              iter       energy          gnorm     gmax       time
             ----- ------------------- --------- --------- --------
                 1      -56.1704563747  6.48D-01  2.02D-01      0.1
                 2      -56.1933962961  1.55D-01  5.91D-02      0.1
                 3      -56.1955398351  9.86D-03  4.11D-03      0.1
                 4      -56.1955517921  5.67D-05  2.29D-05      0.1


       Final RHF  results 
       ------------------ 

         Total SCF energy =    -56.195551792121
      One-electron energy =    -99.622133503091
      Two-electron energy =     31.493177174683
 Nuclear repulsion energy =     11.933404536287

        Time for solution =      0.1s



       Symmetry analysis of molecular orbitals - final
       -----------------------------------------------

  Numbering of irreducible representations: 

     1 a1          2 a2          3 e       

  Orbital symmetries:

     1 a1          2 a1          3 e           4 e           5 a1      
     6 a1          7 e           8 e           9 e          10 e       
    11 a1         12 a1         13 e          14 e          15 e       

             Final eigenvalues
             -----------------

              1      
    1  -15.5367
    2   -1.1308
    3   -0.6158
    4   -0.6158
    5   -0.4188
    6    0.1869
    7    0.2704
    8    0.2704
    9    0.7313
   10    0.7313
   11    0.8808
   12    0.9966
   13    1.0731
   14    1.0731
   15    1.3190

                       ROHF Final Molecular Orbital Analysis
                       -------------------------------------

 Vector    2  Occ=2.000000D+00  E=-1.130822D+00  Symmetry=a1
              MO Center= -1.6D-17,  1.7D-17,  1.1D-01, r^2= 7.0D-01
   Bfn.  Coefficient  Atom+Function         Bfn.  Coefficient  Atom+Function  
  ----- ------------  ---------------      ----- ------------  ---------------
     2      0.404508  1 N  s                  3      0.282937  1 N  s          
    15      0.196094  2 H  s                 20      0.196094  3 H  s          
    25      0.196094  4 H  s          

 Vector    3  Occ=2.000000D+00  E=-6.158175D-01  Symmetry=e
              MO Center=  1.6D-01,  1.2D-01,  1.1D-01, r^2= 9.6D-01
   Bfn.  Coefficient  Atom+Function         Bfn.  Coefficient  Atom+Function  
  ----- ------------  ---------------      ----- ------------  ---------------
    15      0.372343  2 H  s                  5      0.336776  1 N  py         
     4      0.296676  1 N  px                20     -0.206584  3 H  s          
    25     -0.165759  4 H  s                  8      0.159923  1 N  py         

 Vector    4  Occ=2.000000D+00  E=-6.158175D-01  Symmetry=e
              MO Center= -1.6D-01, -1.2D-01,  1.1D-01, r^2= 9.6D-01
   Bfn.  Coefficient  Atom+Function         Bfn.  Coefficient  Atom+Function  
  ----- ------------  ---------------      ----- ------------  ---------------
     4      0.336776  1 N  px                25     -0.334244  4 H  s          
    20      0.310673  3 H  s                  5     -0.296676  1 N  py         
     7      0.159923  1 N  px         

 Vector    5  Occ=2.000000D+00  E=-4.187629D-01  Symmetry=a1
              MO Center=  2.4D-17, -8.7D-18, -2.0D-01, r^2= 8.2D-01
   Bfn.  Coefficient  Atom+Function         Bfn.  Coefficient  Atom+Function  
  ----- ------------  ---------------      ----- ------------  ---------------
     6      0.543544  1 N  pz                 9      0.463902  1 N  pz         
     3     -0.294983  1 N  s          

 Vector    6  Occ=0.000000D+00  E= 1.868889D-01  Symmetry=a1
              MO Center= -1.6D-16,  2.4D-16,  4.4D-01, r^2= 3.7D+00
   Bfn.  Coefficient  Atom+Function         Bfn.  Coefficient  Atom+Function  
  ----- ------------  ---------------      ----- ------------  ---------------
     3      1.473042  1 N  s                 16     -0.738412  2 H  s          
    21     -0.738412  3 H  s                 26     -0.738412  4 H  s          
     9      0.325061  1 N  pz         

 Vector    7  Occ=0.000000D+00  E= 2.703682D-01  Symmetry=e
              MO Center= -6.3D-01, -1.1D-02,  4.5D-01, r^2= 3.8D+00
   Bfn.  Coefficient  Atom+Function         Bfn.  Coefficient  Atom+Function  
  ----- ------------  ---------------      ----- ------------  ---------------
    26      1.773222  4 H  s                 21     -1.101999  3 H  s          
     7      0.828277  1 N  px                16     -0.671223  2 H  s          
     8     -0.351312  1 N  py                 4      0.268831  1 N  px         

 Vector    8  Occ=0.000000D+00  E= 2.703682D-01  Symmetry=e
              MO Center=  6.3D-01,  1.1D-02,  4.5D-01, r^2= 3.8D+00
   Bfn.  Coefficient  Atom+Function         Bfn.  Coefficient  Atom+Function  
  ----- ------------  ---------------      ----- ------------  ---------------
    16      1.660010  2 H  s                 21     -1.411301  3 H  s          
     8     -0.828277  1 N  py                 7     -0.351312  1 N  px         
     5     -0.268831  1 N  py                26     -0.248709  4 H  s          

 Vector    9  Occ=0.000000D+00  E= 7.313056D-01  Symmetry=e
              MO Center= -1.1D-02, -9.1D-02,  8.1D-02, r^2= 1.8D+00
   Bfn.  Coefficient  Atom+Function         Bfn.  Coefficient  Atom+Function  
  ----- ------------  ---------------      ----- ------------  ---------------
    20      0.993435  3 H  s                 25     -0.663826  4 H  s          
     8      0.604968  1 N  py                21     -0.533464  3 H  s          
    26      0.356468  4 H  s                 15     -0.329609  2 H  s          
     7     -0.294958  1 N  px                16      0.176997  2 H  s          

 Vector   10  Occ=0.000000D+00  E= 7.313056D-01  Symmetry=e
              MO Center=  1.1D-02,  9.1D-02,  8.1D-02, r^2= 1.8D+00
   Bfn.  Coefficient  Atom+Function         Bfn.  Coefficient  Atom+Function  
  ----- ------------  ---------------      ----- ------------  ---------------
    15      0.956820  2 H  s                 25     -0.763859  4 H  s          
     7     -0.604968  1 N  px                16     -0.513802  2 H  s          
    26      0.410185  4 H  s                  8     -0.294958  1 N  py         
    20     -0.192960  3 H  s          

 Vector   11  Occ=0.000000D+00  E= 8.808116D-01  Symmetry=a1
              MO Center=  6.5D-16, -3.2D-15,  2.6D-01, r^2= 1.9D+00
   Bfn.  Coefficient  Atom+Function         Bfn.  Coefficient  Atom+Function  
  ----- ------------  ---------------      ----- ------------  ---------------
     3      0.632079  1 N  s                 15      0.558000  2 H  s          
    20      0.558000  3 H  s                 25      0.558000  4 H  s          
    16     -0.449113  2 H  s                 21     -0.449113  3 H  s          
    26     -0.449113  4 H  s                  2     -0.406381  1 N  s          
     6     -0.362402  1 N  pz                 9      0.271905  1 N  pz         

 Vector   12  Occ=0.000000D+00  E= 9.966272D-01  Symmetry=a1
              MO Center=  1.0D-16, -1.7D-17, -1.0D-01, r^2= 1.4D+00
   Bfn.  Coefficient  Atom+Function         Bfn.  Coefficient  Atom+Function  
  ----- ------------  ---------------      ----- ------------  ---------------
     9      1.204186  1 N  pz                 6     -0.873609  1 N  pz         
     3      0.437030  1 N  s                 15     -0.394537  2 H  s          
    20     -0.394537  3 H  s                 25     -0.394537  4 H  s          
     2      0.236345  1 N  s          

 Vector   13  Occ=0.000000D+00  E= 1.073089D+00  Symmetry=e
              MO Center=  6.7D-03, -9.6D-02, -8.1D-03, r^2= 2.1D+00
   Bfn.  Coefficient  Atom+Function         Bfn.  Coefficient  Atom+Function  
  ----- ------------  ---------------      ----- ------------  ---------------
     8      1.682804  1 N  py                21      1.226282  3 H  s          
     5     -0.781106  1 N  py                26     -0.715634  4 H  s          
     7     -0.629594  1 N  px                16     -0.510648  2 H  s          
    23      0.323157  3 H  py                 4      0.292238  1 N  px         
    27     -0.195995  4 H  px                20      0.154155  3 H  s          

 Vector   14  Occ=0.000000D+00  E= 1.073089D+00  Symmetry=e
              MO Center= -6.7D-03,  9.6D-02, -8.1D-03, r^2= 2.1D+00
   Bfn.  Coefficient  Atom+Function         Bfn.  Coefficient  Atom+Function  
  ----- ------------  ---------------      ----- ------------  ---------------
     7      1.682804  1 N  px                16     -1.121165  2 H  s          
    26      1.002817  4 H  s                  4     -0.781106  1 N  px         
     8      0.629594  1 N  py                 5     -0.292238  1 N  py         
    27      0.257824  4 H  px                18      0.226727  2 H  py         
    17      0.204594  2 H  px         

 Vector   15  Occ=0.000000D+00  E= 1.318961D+00  Symmetry=e
              MO Center= -8.2D-02, -4.4D-02,  1.8D-01, r^2= 1.2D+00
   Bfn.  Coefficient  Atom+Function         Bfn.  Coefficient  Atom+Function  
  ----- ------------  ---------------      ----- ------------  ---------------
    29      0.432204  4 H  pz                24     -0.364382  3 H  pz         
    18      0.341217  2 H  py                17     -0.304524  2 H  px         
     7      0.256479  1 N  px                22     -0.240774  3 H  px         
    23     -0.208829  3 H  py                27      0.203705  4 H  px         
     8     -0.190555  1 N  py                13      0.174882  1 N  d  1       


 center of mass
 --------------
 x =   0.00000000 y =   0.00000000 z =   0.00000000

 moments of inertia (a.u.)
 ------------------
           6.057188905360          -0.000000000000           0.000000000000
          -0.000000000000           6.057188905360          -0.000000000000
           0.000000000000          -0.000000000000           9.536573719632

  Mulliken analysis of the total density
  --------------------------------------

    Atom       Charge   Shell Charges
 -----------   ------   -------------------------------------------------------
    1 N    7     7.27   2.00  0.75  0.63  2.34  1.52  0.02
    2 H    1     0.91   0.73  0.13  0.06
    3 H    1     0.91   0.73  0.13  0.06
    4 H    1     0.91   0.73  0.13  0.06

       Multipole analysis of the density wrt the origin
       ------------------------------------------------

     L   x y z        total         open         nuclear
     -   - - -        -----         ----         -------
     0   0 0 0      0.000000      0.000000     10.000000

     1   1 0 0     -0.000000      0.000000      0.000000
     1   0 1 0      0.000000      0.000000      0.000000
     1   0 0 1      0.664171      0.000000      0.881417

     2   2 0 0     -4.501396      0.000000      4.731265
     2   1 1 0      0.000000      0.000000      0.000000
     2   1 0 1     -0.000000      0.000000      0.000000
     2   0 2 0     -4.501396      0.000000      4.731265
     2   0 1 1      0.000000      0.000000      0.000000
     2   0 0 2     -6.289368      0.000000      1.166209


 Parallel integral file used       1 records with       0 large values


 Task  times  cpu:        0.1s     wall:        0.2s
 Summary of allocated global arrays
-----------------------------------
  No active global arrays



                         GA Statistics for process    0
                         ------------------------------

       create   destroy   get      put      acc     scatter   gather  read&inc
calls:  288      288     3816     1622     2954        0        0      403     
number of processes/call 1.00e+00 1.00e+00 1.00e+00 0.00e+00 0.00e+00
bytes total:             2.55e+06 1.52e+06 1.09e+06 0.00e+00 0.00e+00 3.22e+03
bytes remote:            0.00e+00 0.00e+00 0.00e+00 0.00e+00 0.00e+00 0.00e+00
Max memory consumed for GA by this process: 87464 bytes
MA_summarize_allocated_blocks: starting scan ...
MA_summarize_allocated_blocks: scan completed: 0 heap blocks, 0 stack blocks
MA usage statistics:

	allocation statistics:
					      heap	     stack
					      ----	     -----
	current number of blocks	         0	         0
	maximum number of blocks	        18	        14
	current total bytes		         0	         0
	maximum total bytes		   1062904	  22509800
	maximum total K-bytes		      1063	     22510
	maximum total M-bytes		         2	        23


                                NWChem Input Module
                                -------------------





                                     CITATION
                                     --------
                Please cite the following reference when publishing
                           results obtained with NWChem:

                 M. Valiev, E.J. Bylaska, N. Govind, K. Kowalski,
              T.P. Straatsma, H.J.J. van Dam, D. Wang, J. Nieplocha,
                        E. Apra, T.L. Windus, W.A. de Jong
                 "NWChem: a comprehensive and scalable open-source
                  solution for large scale molecular simulations"
                      Comput. Phys. Commun. 181, 1477 (2010)
                           doi:10.1016/j.cpc.2010.04.018

                                      AUTHORS
                                      -------
          E. Apra, E. J. Bylaska, W. A. de Jong, N. Govind, K. Kowalski,
       T. P. Straatsma, M. Valiev, H. J. J. van Dam, D. Wang, T. L. Windus,
        J. Hammond, J. Autschbach, K. Bhaskaran-Nair, J. Brabec, K. Lopata,
       S. A. Fischer, S. Krishnamoorthy, W. Ma, M. Klemm, O. Villa, Y. Chen,
    V. Anisimov, F. Aquino, S. Hirata, M. T. Hackler, T. Risthaus, M. Malagoli,
       A. Marenich, A. Otero-de-la-Roza, J. Mullin, P. Nichols, R. Peverati,
     J. Pittner, Y. Zhao, P.-D. Fan, A. Fonari, M. Williamson, R. J. Harrison,
       J. R. Rehr, M. Dupuis, D. Silverstein, D. M. A. Smith, J. Nieplocha,
        V. Tipparaju, M. Krishnan, B. E. Van Kuiken, A. Vazquez-Mayagoitia,
        L. Jensen, M. Swart, Q. Wu, T. Van Voorhis, A. A. Auer, M. Nooijen,
      L. D. Crosby, E. Brown, G. Cisneros, G. I. Fann, H. Fruchtl, J. Garza,
        K. Hirao, R. A. Kendall, J. A. Nichols, K. Tsemekhman, K. Wolinski,
     J. Anchell, D. E. Bernholdt, P. Borowski, T. Clark, D. Clerc, H. Dachsel,
   M. J. O. Deegan, K. Dyall, D. Elwood, E. Glendening, M. Gutowski, A. C. Hess,
         J. Jaffe, B. G. Johnson, J. Ju, R. Kobayashi, R. Kutteh, Z. Lin,
   R. Littlefield, X. Long, B. Meng, T. Nakajima, S. Niu, L. Pollack, M. Rosing,
   K. Glaesemann, G. Sandrone, M. Stave, H. Taylor, G. Thomas, J. H. van Lenthe,
                               A. T. Wong, Z. Zhang.

 Total times  cpu:        0.1s     wall:        0.2s
