
 Primary working directories    : /home/willy/tmp
 Secondary working directories  : /home/willy/tmp
 Wavefunction directory         : /home/willy/wfu/
 Main file repository           : /home/willy/tmp/

 SHA1      : 0b0b022c660e73fb8d4a354a6920c32f9035fdc5
 NAME      : 2015.1.3
 ARCHNAME  : linux/x86_64
 FC        : /opt/intel/composer_xe_2015.1.133/bin/intel64/ifort
 BLASLIB   : -Wl,-_start-group /opt/intel/mkl/lib/intel64/libmkl_intel_ilp64.a /opt/intel/mkl/lib/intel64/libmkl_intel_thread.a /opt/intel/mkl/lib/intel64/libmkl_core.a -Wl,-_end-group
 id        : uma

 Nodes             nprocs
 neptuno.qfa.uam.es    1

 Using customized tuning parameters: mindgm=1; mindgv=20; mindgc=4; mindgr=1; noblas=0; minvec=7
 default implementation of scratch files=df  

   ***, ClH
   memory,800,m
   gparam,ibank=1
   gprint,basis,civector                                                         !,orbitals
   GTHRESH, optgrad=1.e-6, energy=1.e-9;
   basis=cc-pv5z
   geometry={
      Cl
      H,Cl,2.409
   }
   hf
   {multi
    state,2}
   {mrci
    state,2
    dm,6000.2}
 
      PUT,xyz,clh.xyz,old
                                                                                 !    {put,xml,lih.xml;keepspherical}
 
      {matrop
      load,d,den,6000.2,state=1.1
      print,d
      }
 
      {matrop
      load,d,den,6000.2,state=2.1
      print,d
      }
 
      {matrop
      load,orb
      print,orb
      }

 Variables initialized (889), CPU time= 0.00 sec
 Commands  initialized (702), CPU time= 0.01 sec, 572 directives.
 Default parameters read. Elapsed time= 0.04 sec

 Checking input...
 Passed
1


                                         ***  PROGRAM SYSTEM MOLPRO  ***
                                       Copyright, TTI GmbH Stuttgart, 2015
                                    Version 2015.1 linked Feb  5 2016 14:18:43


 **********************************************************************************************************************************
 LABEL *                                                                                 
  64 bit serial version                                                                  DATE: 19-Jul-18          TIME: 17:06:36  
 **********************************************************************************************************************************

 SHA1:             0b0b022c660e73fb8d4a354a6920c32f9035fdc5
 **********************************************************************************************************************************

 MOLPRO SYSTEM PARAMETERS:

 LSEG     =   128   INTREL   =     1   IVECT    =     1   MINVEC   =     7   IBANK    =     1   LTRACK   =  4096
 LTR      =     1   NCPUS    =     1   NOBUFF   =     0   IASYN    =     0   NCACHE   = 16384   MXMBLK   =    64
 MXMBLN   =    64   MINBR1   =  1000   NCHUNK1  =     1   LENBUF   = 32768   NTR      = 32768   MXDMP    =     3
 UNROLL   =     2   NOBLAS   =     0   MINDGM   =     1   MINDGV   =    20   MINDGL   =     4   MINDGR   =     1
 MINDGC   =     4   MINDGF   =  5000   MFLOPDGM = 10000   MFLOPDGV =  4000   MFLOPMXM =  5000   MFLOPMXV =  4000
 MPPLAT   =     3   MPPSPEED =  1600   MXMALAT  =     6   OLDDIAG2 =     0   MINCUDA  =   500   MINDGM2  =    90
 DSYEVD   =     3   DSYEVDG  =     3
 


 THRESHOLDS:

 ZERO    =  1.00D-12  ONEINT  =  1.00D-12  TWOINT  =  1.00D-11  PREFAC  =  1.00D-14  LOCALI  =  1.00D-09  EORDER  =  1.00D-04
 ENERGY  =  1.00D-09  ETEST   =  0.00D+00  EDENS   =  0.00D+00  THRDEDEF=  1.00D-06  GRADIENT=  1.00D-02  STEP    =  1.00D-03
 ORBITAL =  1.00D-05  CIVEC   =  1.00D-05  COEFF   =  1.00D-04  PRINTCI =  5.00D-02  PUNCHCI =  9.90D+01  OPTGRAD =  1.00D-06
 OPTENERG=  1.00D-06  OPTSTEP =  3.00D-04  THRGRAD =  1.00D-10  COMPRESS=  1.00D-11  VARMIN  =  1.00D-07  VARMAX  =  1.00D-03
 THRDOUB =  0.00D+00  THRDIV  =  1.00D-05  THRRED  =  1.00D-07  THRPSP  =  1.00D+00  THRDC   =  1.00D-10  THRCS   =  1.00D-10
 THRNRM  =  1.00D-08  THREQ   =  0.00D+00  THRDE   =  1.00D+00  THRREF  =  1.00D-05  SPARFAC =  1.00D+00  THRDLP  =  1.00D-07
 THRDIA  =  1.00D-10  THRDLS  =  1.00D-07  THRGPS  =  0.00D+00  THRKEX  =  0.00D+00  THRDIS  =  2.00D-01  THRVAR  =  1.00D-10
 THRLOC  =  1.00D-06  THRGAP  =  1.00D-06  THRLOCT = -1.00D+00  THRGAPT = -1.00D+00  THRORB  =  1.00D-06  THRMLTP =  0.00D+00
 THRCPQCI=  1.00D-10  KEXTA   =  0.00D+00  THRCOARS=  0.00D+00  SYMTOL  =  1.00D-06  GRADTOL =  1.00D-06  THROVL  =  1.00D-08
 THRORTH =  1.00D-08  GRID    =  1.00D-06  GRIDMAX =  1.00D-03  DTMAX   =  0.00D+00  THROCCDE=  1.00D-01  THROCCDE=  1.00D-01



 Variable memory set to  800000000 words,  buffer space   230000 words

 SETTING BASIS          =    CC-PV5Z


 Recomputing integrals since basis changed


 Using spherical harmonics

 Library entry CL     S cc-pV5Z              selected for orbital group  1
 Library entry CL     P cc-pV5Z              selected for orbital group  1
 Library entry CL     D cc-pV5Z              selected for orbital group  1
 Library entry CL     F cc-pV5Z              selected for orbital group  1
 Library entry CL     G cc-pV5Z              selected for orbital group  1
 Library entry CL     H cc-pV5Z              selected for orbital group  1
 Library entry H      S cc-pV5Z              selected for orbital group  2
 Library entry H      P cc-pV5Z              selected for orbital group  2
 Library entry H      D cc-pV5Z              selected for orbital group  2
 Library entry H      F cc-pV5Z              selected for orbital group  2
 Library entry H      G cc-pV5Z              selected for orbital group  2

1PROGRAM * SEWARD (Integral evaluation for generally contracted gaussian basis sets)     Author: Roland Lindh, 1990

 Geometry written to block  1 of record 700

 Orientation using atomic masses  
 Molecule type: Linear
 Symmetry elements: X,Y
 Rotational constants:     317.3083590    317.3083590      0.0000000 GHz  (calculated with average atomic masses)

 Point group  C2v 



 ATOMIC COORDINATES

 NR  ATOM    CHARGE       X              Y              Z

   1  CL     17.00    0.000000000    0.000000000   -0.066595306
   2  H       1.00    0.000000000    0.000000000    2.342404694

 Bond lengths in Bohr (Angstrom)

 1-2  2.409000000
     ( 1.274787901)


 BASIS DATA

   Nr Sym  Nuc  Type         Exponents   Contraction coefficients

    1.1 A1    1  1s     6410000.000000     0.000002   -0.000001    0.000000    0.000000    0.000000    0.000000
                                           0.000000
    2.1 A1               959600.000000     0.000014   -0.000004    0.000001    0.000000    0.000000    0.000000
                                           0.000000
    3.1 A1               218300.000000     0.000074   -0.000021    0.000006    0.000000    0.000000    0.000000
                                           0.000000
    4.1 A1                61810.000000     0.000314   -0.000088    0.000027    0.000000    0.000000    0.000000
                                           0.000000
    5.1 A1                20140.000000     0.001146   -0.000322    0.000097    0.000000    0.000000    0.000000
                                           0.000000
    6.1 A1                 7264.000000     0.003739   -0.001053    0.000318    0.000000    0.000000    0.000000
                                           0.000000
    7.1 A1                 2832.000000     0.011095   -0.003142    0.000952    0.000000    0.000000    0.000000
                                           0.000000
                           1175.000000     0.030115   -0.008664    0.002624    0.000000    0.000000    0.000000
                                           0.000000
                            512.600000     0.073914   -0.021935    0.006682    0.000000    0.000000    0.000000
                                           0.000000
                            233.000000     0.158258   -0.050258    0.015359    0.000000    0.000000    0.000000
                                           0.000000
                            109.500000     0.274753   -0.099541    0.030943    0.000000    0.000000    0.000000
                                           0.000000
                             52.860000     0.334066   -0.157647    0.050064    0.000000    0.000000    0.000000
                                           0.000000
                             25.840000     0.217589   -0.146024    0.048978    0.000000    0.000000    0.000000
                                           0.000000
                             12.170000     0.045728    0.069223   -0.026081    0.000000    0.000000    0.000000
                                           0.000000
                              6.030000    -0.000135    0.430412   -0.178426    0.000000    0.000000    0.000000
                                           0.000000
                              3.012000     0.001639    0.490802   -0.332324    0.000000    0.000000    0.000000
                                           0.000000
                              1.511000    -0.000522    0.158390   -0.132008    1.000000    0.000000    0.000000
                                           0.000000
                              0.660400     0.000181    0.008399    0.440556    0.000000    1.000000    0.000000
                                           0.000000
                              0.292600    -0.000100    0.000768    0.611891    0.000000    0.000000    1.000000
                                           0.000000
                              0.125400     0.000019    0.000227    0.193172    0.000000    0.000000    0.000000
                                           1.000000
    8.1 A1    1  2pz       2548.000000     0.000236   -0.000064    0.000000    0.000000    0.000000    0.000000
    9.1 A1                  603.700000     0.002052   -0.000553    0.000000    0.000000    0.000000    0.000000
   10.1 A1                  195.600000     0.011154   -0.003028    0.000000    0.000000    0.000000    0.000000
   11.1 A1                   74.150000     0.043982   -0.012065    0.000000    0.000000    0.000000    0.000000
   12.1 A1                   30.940000     0.129994   -0.036635    0.000000    0.000000    0.000000    0.000000
   13.1 A1                   13.690000     0.272959   -0.079076    0.000000    0.000000    0.000000    0.000000
                              6.229000     0.383690   -0.117422    0.000000    0.000000    0.000000    0.000000
                              2.878000     0.291870   -0.086094    0.000000    0.000000    0.000000    0.000000
                              1.282000     0.070446    0.140308    1.000000    0.000000    0.000000    0.000000
                              0.564100     0.001288    0.422336    0.000000    1.000000    0.000000    0.000000
                              0.234800     0.001826    0.446363    0.000000    0.000000    1.000000    0.000000
                              0.093120     0.000020    0.166634    0.000000    0.000000    0.000000    1.000000
   14.1 A1    1  3d0          0.250000     1.000000
   15.1 A1    1  3d2+         0.250000     1.000000
   16.1 A1    1  3d0          0.618000     1.000000
   17.1 A1    1  3d2+         0.618000     1.000000
   18.1 A1    1  3d0          1.529000     1.000000
   19.1 A1    1  3d2+         1.529000     1.000000
   20.1 A1    1  3d0          3.781000     1.000000
   21.1 A1    1  3d2+         3.781000     1.000000
   22.1 A1    1  4f0          0.320000     1.000000
   23.1 A1    1  4f2+         0.320000     1.000000
   24.1 A1    1  4f0          0.656000     1.000000
   25.1 A1    1  4f2+         0.656000     1.000000
   26.1 A1    1  4f0          1.345000     1.000000
   27.1 A1    1  4f2+         1.345000     1.000000
   28.1 A1    1  5g0          0.556000     1.000000
   29.1 A1    1  5g4+         0.556000     1.000000
   30.1 A1    1  5g2+         0.556000     1.000000
   31.1 A1    1  5g0          1.302000     1.000000
   32.1 A1    1  5g4+         1.302000     1.000000
   33.1 A1    1  5g2+         1.302000     1.000000
   34.1 A1    1  6h2+         1.053000     1.000000
   35.1 A1    1  6h4+         1.053000     1.000000
   36.1 A1    1  6h0          1.053000     1.000000
   37.1 A1    2  1s         402.000000     0.000279    0.000000    0.000000    0.000000    0.000000
   38.1 A1                   60.240000     0.002165    0.000000    0.000000    0.000000    0.000000
   39.1 A1                   13.730000     0.011201    0.000000    0.000000    0.000000    0.000000
   40.1 A1                    3.905000     0.044878    0.000000    0.000000    0.000000    0.000000
   41.1 A1                    1.283000     0.142299    1.000000    0.000000    0.000000    0.000000
                              0.465500     0.330979    0.000000    1.000000    0.000000    0.000000
                              0.181100     0.436269    0.000000    0.000000    1.000000    0.000000
                              0.072790     0.176440    0.000000    0.000000    0.000000    1.000000
   42.1 A1    2  2pz          4.516000     1.000000
   43.1 A1    2  2pz          1.712000     1.000000
   44.1 A1    2  2pz          0.649000     1.000000
   45.1 A1    2  2pz          0.246000     1.000000
   46.1 A1    2  3d0          2.950000     1.000000
   47.1 A1    2  3d2+         2.950000     1.000000
   48.1 A1    2  3d0          1.206000     1.000000
   49.1 A1    2  3d2+         1.206000     1.000000
   50.1 A1    2  3d0          0.493000     1.000000
   51.1 A1    2  3d2+         0.493000     1.000000
   52.1 A1    2  4f0          2.506000     1.000000
   53.1 A1    2  4f2+         2.506000     1.000000
   54.1 A1    2  4f0          0.875000     1.000000
   55.1 A1    2  4f2+         0.875000     1.000000
   56.1 A1    2  5g0          2.358000     1.000000
   57.1 A1    2  5g4+         2.358000     1.000000
   58.1 A1    2  5g2+         2.358000     1.000000
    1.2 B1    1  2px       2548.000000     0.000236   -0.000064    0.000000    0.000000    0.000000    0.000000
    2.2 B1                  603.700000     0.002052   -0.000553    0.000000    0.000000    0.000000    0.000000
    3.2 B1                  195.600000     0.011154   -0.003028    0.000000    0.000000    0.000000    0.000000
    4.2 B1                   74.150000     0.043982   -0.012065    0.000000    0.000000    0.000000    0.000000
    5.2 B1                   30.940000     0.129994   -0.036635    0.000000    0.000000    0.000000    0.000000
    6.2 B1                   13.690000     0.272959   -0.079076    0.000000    0.000000    0.000000    0.000000
                              6.229000     0.383690   -0.117422    0.000000    0.000000    0.000000    0.000000
                              2.878000     0.291870   -0.086094    0.000000    0.000000    0.000000    0.000000
                              1.282000     0.070446    0.140308    1.000000    0.000000    0.000000    0.000000
                              0.564100     0.001288    0.422336    0.000000    1.000000    0.000000    0.000000
                              0.234800     0.001826    0.446363    0.000000    0.000000    1.000000    0.000000
                              0.093120     0.000020    0.166634    0.000000    0.000000    0.000000    1.000000
    7.2 B1    1  3d1+         0.250000     1.000000
    8.2 B1    1  3d1+         0.618000     1.000000
    9.2 B1    1  3d1+         1.529000     1.000000
   10.2 B1    1  3d1+         3.781000     1.000000
   11.2 B1    1  4f1+         0.320000     1.000000
   12.2 B1    1  4f3+         0.320000     1.000000
   13.2 B1    1  4f1+         0.656000     1.000000
   14.2 B1    1  4f3+         0.656000     1.000000
   15.2 B1    1  4f1+         1.345000     1.000000
   16.2 B1    1  4f3+         1.345000     1.000000
   17.2 B1    1  5g1+         0.556000     1.000000
   18.2 B1    1  5g3+         0.556000     1.000000
   19.2 B1    1  5g1+         1.302000     1.000000
   20.2 B1    1  5g3+         1.302000     1.000000
   21.2 B1    1  6h1+         1.053000     1.000000
   22.2 B1    1  6h3+         1.053000     1.000000
   23.2 B1    1  6h5+         1.053000     1.000000
   24.2 B1    2  2px          4.516000     1.000000
   25.2 B1    2  2px          1.712000     1.000000
   26.2 B1    2  2px          0.649000     1.000000
   27.2 B1    2  2px          0.246000     1.000000
   28.2 B1    2  3d1+         2.950000     1.000000
   29.2 B1    2  3d1+         1.206000     1.000000
   30.2 B1    2  3d1+         0.493000     1.000000
   31.2 B1    2  4f1+         2.506000     1.000000
   32.2 B1    2  4f3+         2.506000     1.000000
   33.2 B1    2  4f1+         0.875000     1.000000
   34.2 B1    2  4f3+         0.875000     1.000000
   35.2 B1    2  5g1+         2.358000     1.000000
   36.2 B1    2  5g3+         2.358000     1.000000
    1.3 B2    1  2py       2548.000000     0.000236   -0.000064    0.000000    0.000000    0.000000    0.000000
    2.3 B2                  603.700000     0.002052   -0.000553    0.000000    0.000000    0.000000    0.000000
    3.3 B2                  195.600000     0.011154   -0.003028    0.000000    0.000000    0.000000    0.000000
    4.3 B2                   74.150000     0.043982   -0.012065    0.000000    0.000000    0.000000    0.000000
    5.3 B2                   30.940000     0.129994   -0.036635    0.000000    0.000000    0.000000    0.000000
    6.3 B2                   13.690000     0.272959   -0.079076    0.000000    0.000000    0.000000    0.000000
                              6.229000     0.383690   -0.117422    0.000000    0.000000    0.000000    0.000000
                              2.878000     0.291870   -0.086094    0.000000    0.000000    0.000000    0.000000
                              1.282000     0.070446    0.140308    1.000000    0.000000    0.000000    0.000000
                              0.564100     0.001288    0.422336    0.000000    1.000000    0.000000    0.000000
                              0.234800     0.001826    0.446363    0.000000    0.000000    1.000000    0.000000
                              0.093120     0.000020    0.166634    0.000000    0.000000    0.000000    1.000000
    7.3 B2    1  3d1-         0.250000     1.000000
    8.3 B2    1  3d1-         0.618000     1.000000
    9.3 B2    1  3d1-         1.529000     1.000000
   10.3 B2    1  3d1-         3.781000     1.000000
   11.3 B2    1  4f1-         0.320000     1.000000
   12.3 B2    1  4f3-         0.320000     1.000000
   13.3 B2    1  4f1-         0.656000     1.000000
   14.3 B2    1  4f3-         0.656000     1.000000
   15.3 B2    1  4f1-         1.345000     1.000000
   16.3 B2    1  4f3-         1.345000     1.000000
   17.3 B2    1  5g1-         0.556000     1.000000
   18.3 B2    1  5g3-         0.556000     1.000000
   19.3 B2    1  5g1-         1.302000     1.000000
   20.3 B2    1  5g3-         1.302000     1.000000
   21.3 B2    1  6h1-         1.053000     1.000000
   22.3 B2    1  6h3-         1.053000     1.000000
   23.3 B2    1  6h5-         1.053000     1.000000
   24.3 B2    2  2py          4.516000     1.000000
   25.3 B2    2  2py          1.712000     1.000000
   26.3 B2    2  2py          0.649000     1.000000
   27.3 B2    2  2py          0.246000     1.000000
   28.3 B2    2  3d1-         2.950000     1.000000
   29.3 B2    2  3d1-         1.206000     1.000000
   30.3 B2    2  3d1-         0.493000     1.000000
   31.3 B2    2  4f1-         2.506000     1.000000
   32.3 B2    2  4f3-         2.506000     1.000000
   33.3 B2    2  4f1-         0.875000     1.000000
   34.3 B2    2  4f3-         0.875000     1.000000
   35.3 B2    2  5g1-         2.358000     1.000000
   36.3 B2    2  5g3-         2.358000     1.000000
    1.4 A2    1  3d2-         0.250000     1.000000
    2.4 A2    1  3d2-         0.618000     1.000000
    3.4 A2    1  3d2-         1.529000     1.000000
    4.4 A2    1  3d2-         3.781000     1.000000
    5.4 A2    1  4f2-         0.320000     1.000000
    6.4 A2    1  4f2-         0.656000     1.000000
    7.4 A2    1  4f2-         1.345000     1.000000
    8.4 A2    1  5g2-         0.556000     1.000000
    9.4 A2    1  5g4-         0.556000     1.000000
   10.4 A2    1  5g2-         1.302000     1.000000
   11.4 A2    1  5g4-         1.302000     1.000000
   12.4 A2    1  6h4-         1.053000     1.000000
   13.4 A2    1  6h2-         1.053000     1.000000
   14.4 A2    2  3d2-         2.950000     1.000000
   15.4 A2    2  3d2-         1.206000     1.000000
   16.4 A2    2  3d2-         0.493000     1.000000
   17.4 A2    2  4f2-         2.506000     1.000000
   18.4 A2    2  4f2-         0.875000     1.000000
   19.4 A2    2  5g2-         2.358000     1.000000
   20.4 A2    2  5g4-         2.358000     1.000000

 NUCLEAR CHARGE:                   18
 NUMBER OF PRIMITIVE AOS:         234
 NUMBER OF SYMMETRY AOS:          184
 NUMBER OF CONTRACTIONS:          150   (  58A1  +  36B1  +  36B2  +  20A2  )
 NUMBER OF CORE ORBITALS:           5   (   3A1  +   1B1  +   1B2  +   0A2  )
 NUMBER OF VALENCE ORBITALS:        5   (   3A1  +   1B1  +   1B2  +   0A2  )


 NUCLEAR REPULSION ENERGY    7.05687007

 EXTRA SYMMETRY OF AOS IN SYMMETRY 1:   1 1 1 1 1 1 1 1 1 1   1 1 1 1 2 1 2 1 2 1   2 1 2 1 2 1 2 1 3 2   1 3 2 2 3 1 1 1 1 1
                                        1 1 1 1 1 1 2 1 2 1   2 1 2 1 2 1 3 2
 EXTRA SYMMETRY OF AOS IN SYMMETRY 2:   1 1 1 1 1 1 1 1 1 1   1 2 1 2 1 2 1 2 1 2   1 2 3 1 1 1 1 1 1 1   1 2 1 2 1 2
 EXTRA SYMMETRY OF AOS IN SYMMETRY 3:   1 1 1 1 1 1 1 1 1 1   1 2 1 2 1 2 1 2 1 2   1 2 3 1 1 1 1 1 1 1   1 2 1 2 1 2
 EXTRA SYMMETRY OF AOS IN SYMMETRY 4:   1 1 1 1 1 1 1 1 2 1   2 2 1 1 1 1 1 1 1 2

 Eigenvalues of metric

         1 0.584E-05 0.232E-04 0.165E-03 0.539E-03 0.116E-02 0.264E-02 0.461E-02 0.211E-01
         2 0.653E-05 0.366E-02 0.143E-01 0.318E-01 0.522E-01 0.730E-01 0.864E-01 0.927E-01
         3 0.653E-05 0.366E-02 0.143E-01 0.318E-01 0.522E-01 0.730E-01 0.864E-01 0.927E-01
         4 0.657E-01 0.702E-01 0.843E-01 0.146E+00 0.346E+00 0.383E+00 0.388E+00 0.517E+00


 Contracted 2-electron integrals neglected if value below      1.0D-14
 AO integral compression algorithm  1   Integral accuracy      1.0D-14

     113.770 MB (compressed) written to integral file ( 74.3%)


 NUMBER OF SORTED TWO-ELECTRON INTEGRALS:   16525987.     BUFFER LENGTH:  32768
 NUMBER OF SEGMENTS:   2  SEGMENT LENGTH:   15999811      RECORD LENGTH: 524288

 Memory used in sort:      16.56 MW

 SORT1 READ    19165630. AND WROTE    11117043. INTEGRALS IN     33 RECORDS. CPU TIME:     0.33 SEC, REAL TIME:     0.42 SEC
 SORT2 READ    11117043. AND WROTE    16525987. INTEGRALS IN    434 RECORDS. CPU TIME:     0.28 SEC, REAL TIME:     0.34 SEC

 FILE SIZES:   FILE 1:   133.4 MBYTE,  FILE 4:   138.4 MBYTE,   TOTAL:    271.8 MBYTE

 OPERATOR DM      FOR CENTER  0  COORDINATES:    0.000000    0.000000    0.000000


 **********************************************************************************************************************************
 DATASETS  * FILE   NREC   LENGTH (MB)   RECORD NAMES
              1      19      109.98       500      610      700      900      950      970     1000      129      960     1100   
                                          VAR    BASINP    GEOM    SYMINP    ZMAT    AOBASIS   BASIS     P2S    ABASIS      S 
                                         1400     1410     1200     1210     1080     1600     1650     1300     1700   
                                           T        V       H0       H01     AOSYM     SMH    MOLCAS    ERIS     OPER   

 PROGRAMS   *        TOTAL       INT
 CPU TIMES  *         4.03      3.93
 REAL TIME  *         4.60 SEC
 DISK USED  *       272.15 MB      
 **********************************************************************************************************************************

1PROGRAM * RHF-SCF (CLOSED SHELL)       Authors: W. Meyer, H.-J. Werner


 NUMBER OF ELECTRONS:       9+    9-
 CONVERGENCE THRESHOLDS:    1.00E-06 (Density)    1.00E-10 (Energy)
 MAX. NUMBER OF ITERATIONS:       60
 INTERPOLATION TYPE:            DIIS
 INTERPOLATION STEPS:              2 (START)      1 (STEP)
 LEVEL SHIFTS:                  0.00 (CLOSED)  0.00 (OPEN) 



 Orbital guess generated from atomic densities. Full valence occupancy:    6   2   2   0

 Molecular orbital dump at record        2100.2

 Initial occupancy:   5   2   2   0

 ITERATION    DDIFF          GRAD             ENERGY        2-EL.EN.            DIPOLE MOMENTS         DIIS   ORB.
    1      0.000D+00      0.000D+00      -460.09605730    366.521114    0.00000    0.00000    0.91965    0    start
    2      0.000D+00      0.524D-02      -460.11042811    364.841635    0.00000    0.00000    0.36502    1    diag
    3      0.710D-02      0.234D-02      -460.11215243    365.406485    0.00000    0.00000    0.48300    2    diag
    4      0.204D-02      0.487D-03      -460.11239140    365.392523    0.00000    0.00000    0.47942    3    diag
    5      0.724D-03      0.171D-03      -460.11242602    365.384956    0.00000    0.00000    0.47473    4    diag
    6      0.316D-03      0.281D-04      -460.11242690    365.381570    0.00000    0.00000    0.47469    5    diag
    7      0.601D-04      0.613D-05      -460.11242694    365.382816    0.00000    0.00000    0.47460    6    diag
    8      0.129D-04      0.132D-05      -460.11242694    365.382565    0.00000    0.00000    0.47457    7    diag
    9      0.248D-05      0.217D-06      -460.11242694    365.382632    0.00000    0.00000    0.47456    8    diag
   10      0.430D-06      0.370D-07      -460.11242694    365.382621    0.00000    0.00000    0.47456    0    orth

 Final occupancy:   5   2   2   0

 !RHF STATE 1.1 Energy               -460.112426940611
 Nuclear energy                         7.05687007
 One-electron energy                 -649.86060776
 Two-electron energy                  182.69131075
 Virial quotient                       -1.00002986
 !RHF STATE 1.1 Dipole moment           0.00000000     0.00000000     0.47455691
 Dipole moment /Debye                   0.00000000     0.00000000     1.20612434

 Orbital energies:

         1.1          2.1          3.1          4.1          5.1          6.1          7.1
   -104.848682   -10.574016    -8.041243    -1.116698    -0.625717     0.087029     0.209276

         1.2          2.2          3.2          4.2
     -8.039465    -0.476853     0.286141     0.410228

         1.3          2.3          3.3          4.3
     -8.039465    -0.476853     0.286141     0.410228

         1.4          2.4
      0.509195     1.130260

 HOMO      2.2    -0.476853 =     -12.9758eV
 LUMO      6.1     0.087029 =       2.3682eV
 LUMO-HOMO         0.563881 =      15.3440eV


 **********************************************************************************************************************************
 DATASETS  * FILE   NREC   LENGTH (MB)   RECORD NAMES
              1      19      109.98       500      610      700      900      950      970     1000      129      960     1100   
                                          VAR    BASINP    GEOM    SYMINP    ZMAT    AOBASIS   BASIS     P2S    ABASIS      S 
                                         1400     1410     1200     1210     1080     1600     1650     1300     1700   
                                           T        V       H0       H01     AOSYM     SMH    MOLCAS    ERIS     OPER   

              2       4        2.90       700     1000      520     2100   
                                         GEOM     BASIS   MCVARS     RHF  

 PROGRAMS   *        TOTAL        HF       INT
 CPU TIMES  *         4.76      0.73      3.93
 REAL TIME  *         5.40 SEC
 DISK USED  *       272.15 MB      
 **********************************************************************************************************************************

1PROGRAM * MULTI (Direct Multiconfiguration SCF)       Authors: P.J. Knowles, H.-J. Werner (1984)     S.T. Elbert (1988)


 Number of closed-shell orbitals:   5 (   3   1   1   0 )
 Number of active  orbitals:        5 (   3   1   1   0 )
 Number of external orbitals:     140 (  52  34  34  20 )

 State symmetry 1

 Number of electrons:     8    Spin symmetry=Singlet   Space symmetry=1
 Number of states:        2
 Number of CSFs:          8   (11 determinants, 25 intermediate states)

 Molecular orbitals read from record     2100.2  Type=RHF/CANONICAL (state 1.1)

 EXTRA SYMMETRY OF MOS IN SYMMETRY 1:   1 1 1 1 1 1 1 1 1 2   1 1 1 2 1 2 1 1 2 1   1 1 3 2 2 1 1 1 2 1   2 1 2 1 1 3 2 1 1 3
                                        2 1 2 1 1 2 1 3 2 1   2 1 2 1 1 1 1 1
 EXTRA SYMMETRY OF MOS IN SYMMETRY 2:   1 1 1 1 1 2 1 1 1 1   1 2 2 1 1 2 1 1 1 1   3 2 1 2 1 2 1 1 1 2   2 1 1 1 1 1
 EXTRA SYMMETRY OF MOS IN SYMMETRY 3:   1 1 1 1 1 2 1 1 1 1   1 2 2 1 1 2 1 1 1 1   3 2 1 2 1 2 1 1 1 2   2 1 1 1 1 1
 EXTRA SYMMETRY OF MOS IN SYMMETRY 4:   1 1 1 1 2 1 1 1 1 1   2 1 2 1 1 1 2 1 1 1

 Wavefunction dump at record             2140.2

 Convergence thresholds  0.10E-01 (gradient)  0.10E-08 (energy)  0.10E-02 (step length)

 Weight factors for state symmetry  1:    0.50000   0.50000

 Number of orbital rotations:      459   (    11 Core/Active    224 Core/Virtual   0 Active/Active    224 Active/Virtual)
 Total number of variables:        481


 ITER. MIC  NCI  NEG     ENERGY(VAR)     ENERGY(PROJ)   ENERGY CHANGE     GRAD(0)  GRAD(ORB)   GRAD(CI)     STEP       TIME

   1   50    7    0    -459.86663001    -459.88115875   -0.01452873    0.13996019 0.00161845 0.00000000  0.28D+00      0.25
   2   37    8    0    -459.87281625    -459.87628383   -0.00346759    0.17272038 0.00000018 0.00000000  0.53D-01      0.45
   3   29    8    0    -459.87632323    -459.87632478   -0.00000155    0.00196859 0.00000001 0.00000000  0.30D-02      0.65
   4   24    5    0    -459.87632478    -459.87632478   -0.00000000    0.00000155 0.00000000 0.00000000  0.30D-05      0.83
   5   23    5    0    -459.87632478    -459.87632478    0.00000000    0.00000000 0.00000000 0.00000000  0.84D-08      1.01

 ** WVFN ****  CONVERGENCE REACHED, FINAL GRADIENT:  0.12D-10



 Results for state 1.1
 =====================

 !MCSCF STATE 1.1 Energy             -460.107765431424
 Nuclear energy                         7.05687007
 Kinetic energy                       460.67153921
 One electron energy                 -650.76213578
 Two electron energy                  183.59750028
 Virial ratio                           1.99877619

 !MCSCF STATE 1.1 Dipole moment         0.00000000     0.00000000     0.46616465
 Dipole moment /Debye                   0.00000000     0.00000000     1.18479476

 Results for state 2.1
 =====================

 !MCSCF STATE 2.1 Energy             -459.644884128856
 Nuclear energy                         7.05687007
 Kinetic energy                       459.48574092
 One electron energy                 -646.00629481
 Two electron energy                  179.30454061
 Virial ratio                           2.00034635

 !MCSCF STATE 2.1 Dipole moment         0.00000000     0.00000000    -1.36995233
 Dipole moment /Debye                   0.00000000     0.00000000    -3.48184344

 State-averaged charge density matrix saved on record  2140.2 (density set 1)

 !MCSCF expec         <1.1|DMZ|1.1>     0.466164653660 au =     1.184794760448 Debye
 !MCSCF trans         <2.1|DMZ|1.1>    -1.261291511817 au =    -3.205673280605 Debye
 !MCSCF expec         <2.1|DMZ|2.1>    -1.369952328802 au =    -3.481843439837 Debye


 Natural orbital dump (state averaged) at molpro section  2140.2    (Orbital set 2)


 CI vector
 =========

 220 2 2       0.9950629  -0.0961784
 2ab 2 2       0.0679333   0.7037977
 2ba 2 2      -0.0679333  -0.7037977

 TOTAL ENERGIES                      -460.10776543  -459.64488413



 **********************************************************************************************************************************
 DATASETS  * FILE   NREC   LENGTH (MB)   RECORD NAMES
              1      20      114.02       500      610      700      900      950      970     1000      129      960     1100   
                                          VAR    BASINP    GEOM    SYMINP    ZMAT    AOBASIS   BASIS     P2S    ABASIS      S 
                                         1400     1410     1200     1210     1080     1600     1650     1300     1700     1380   
                                           T        V       H0       H01     AOSYM     SMH    MOLCAS    ERIS     OPER     JKOP   

              2       5        5.68       700     1000      520     2100     2140   
                                         GEOM     BASIS   MCVARS     RHF     MCSCF   

 PROGRAMS   *        TOTAL     MULTI        HF       INT
 CPU TIMES  *         5.97      1.21      0.73      3.93
 REAL TIME  *         6.76 SEC
 DISK USED  *       272.15 MB      
 **********************************************************************************************************************************

1PROGRAM * CI (Multireference internally contracted CI)     Authors: H.-J. Werner, P.J. Knowles, 1987


 Convergence thresholds:  THRVAR = 1.00D-08  THRDEN = 1.00D-09

 Number of optimized states:  2  Roots:   1   2
 Number of reference states:  2  Roots:   1   2

 Reference symmetry:                   1   Singlet 
 Number of electrons:                 18
 Maximum number of shells:             4
 Maximum number of spin couplings:     5

 Reference space:        8 conf        8 CSFs
 N elec internal:       15 conf       15 CSFs
 N-1 el internal:       30 conf       40 CSFs
 N-2 el internal:       45 conf       95 CSFs

 Number of electrons in valence space:                      8
 Maximum number of open shell orbitals in reference space:  2
 Maximum number of open shell orbitals in internal spaces:  6


 Number of core orbitals:           5 (   3   1   1   0 )
 Number of active  orbitals:        5 (   3   1   1   0 )
 Number of external orbitals:     140 (  52  34  34  20 )

 Molecular orbitals read from record     2140.2  Type=MCSCF/NATURAL (state averaged)

 Coulomb and exchange operators available. No transformation done.

 Number of p-space configurations:   2
 Internal expansion vectors linearly dependent.
 Smallest eigenvalue of S: -0.2359232E-15. Vector removed

 Reference wavefunction optimized for reference space (refopt=1)

 State     Reference Energy 
   1        -460.10776543
   2        -459.64488413

 Number of blocks in overlap matrix:     8   Smallest eigenvalue:  0.24D-05
 Number of N-2 electron functions:      49
 Number of N-1 electron functions:      40

 Number of internal configurations:                    8
 Number of singly external configurations:          1528
 Number of doubly external configurations:        125034
 Total number of contracted configurations:       126570
 Total number of uncontracted configurations:     236784

 Diagonal Coupling coefficients finished.               Storage:    4683 words, CPU-Time:      0.00 seconds.
 Energy denominators for pairs finished in 1 passes.    Storage:   63622 words, CPU-time:      0.00 seconds.

  ITER. STATE  ROOT     SQ.NORM     CORR.ENERGY   TOTAL ENERGY   ENERGY CHANGE       DEN1      VAR(S)    VAR(P)      TIME
    1     1     1     1.00000000     0.00000000  -460.10776543     0.00000000    -0.24212013  0.16D-01  0.70D-01     0.08
    1     2     2     1.00000000     0.00000000  -459.64488413    -0.00000000    -0.25718431  0.71D-01  0.68D-01     0.08
    2     1     1     1.07827244    -0.23065679  -460.33842223    -0.23065679    -0.00801588  0.14D-02  0.17D-02     0.70
    2     2     2     1.10831966    -0.22764042  -459.87252455    -0.22764042    -0.01156277  0.58D-02  0.24D-02     0.70
    3     1     1     1.08234118    -0.23957579  -460.34734122    -0.00891899    -0.00053023  0.46D-04  0.13D-03     1.31
    3     2     2     1.10548806    -0.23905930  -459.88394343    -0.01141888    -0.00104598  0.42D-03  0.24D-03     1.31
    4     1     1     1.08404021    -0.24021459  -460.34798002    -0.00063880    -0.00004638  0.25D-05  0.11D-04     1.92
    4     2     2     1.11326824    -0.24045510  -459.88533923    -0.00139580    -0.00018996  0.79D-04  0.40D-04     1.92
    5     1     1     1.08432654    -0.24027277  -460.34803820    -0.00005819    -0.00000665  0.43D-06  0.16D-05     2.55
    5     2     2     1.11714443    -0.24072134  -459.88560546    -0.00026623    -0.00004532  0.19D-04  0.94D-05     2.55
    6     1     1     1.08436757    -0.24028036  -460.34804579    -0.00000759    -0.00000096  0.79D-07  0.22D-06     3.16
    6     2     2     1.11778038    -0.24078000  -459.88566412    -0.00005866    -0.00001133  0.50D-05  0.22D-05     3.16
    7     1     1     1.08438065    -0.24028146  -460.34804689    -0.00000110    -0.00000012  0.95D-08  0.27D-07     3.78
    7     2     2     1.11854516    -0.24079356  -459.88567769    -0.00001357    -0.00000308  0.16D-05  0.63D-06     3.78
    8     1     1     1.08438780    -0.24028160  -460.34804703    -0.00000014    -0.00000002  0.74D-09  0.52D-08     4.39
    8     2     2     1.11890043    -0.24079714  -459.88568127    -0.00000358    -0.00000086  0.38D-06  0.18D-06     4.39
    9     1     1     1.08439090    -0.24028162  -460.34804705    -0.00000002    -0.00000000  0.23D-09  0.97D-09     5.01
    9     2     2     1.11906176    -0.24079823  -459.88568235    -0.00000108    -0.00000027  0.98D-07  0.60D-07     5.01
   10     1     1     1.08439173    -0.24028163  -460.34804706    -0.00000000    -0.00000000  0.46D-10  0.14D-09     5.62
   10     2     2     1.11918460    -0.24079853  -459.88568266    -0.00000031    -0.00000008  0.36D-07  0.18D-07     5.62
   11     1     1     1.08439227    -0.24028163  -460.34804706    -0.00000000    -0.00000000  0.42D-11  0.28D-10     6.24
   11     2     2     1.11923589    -0.24079862  -459.88568275    -0.00000009    -0.00000002  0.11D-07  0.54D-08     6.24
   12     1     1     1.08439215    -0.24028163  -460.34804706    -0.00000000    -0.00000000  0.14D-10  0.19D-10     6.65
   12     2     2     1.11930125    -0.24079866  -459.88568279    -0.00000004    -0.00000000  0.20D-09  0.67D-09     6.65
   13     1     1     1.08439214    -0.24028163  -460.34804706    -0.00000000    -0.00000000  0.14D-10  0.19D-10     7.05
   13     2     2     1.11930231    -0.24079866  -459.88568279    -0.00000000    -0.00000000  0.24D-10  0.55D-10     7.05
   14     1     1     1.08439213    -0.24028163  -460.34804706    -0.00000000    -0.00000000  0.13D-10  0.18D-10     7.44
   14     2     2     1.11930405    -0.24079866  -459.88568279    -0.00000000    -0.00000000  0.81D-11  0.73D-11     7.44


 =====================================
 Analysis of CPU times by interactions
 =====================================

       I      S      P

 I   0.0%
 S   0.0%   0.1%
 P   0.3%   0.5%  30.1%

 Initialization:   0.9%
 Other:           68.0%

 Total CPU:        7.4 seconds
 =====================================



 Reference coefficients greater than 0.0500000
 =============================================
 22022           0.9566468  -0.0727343
 2/\22           0.0791799   0.9416932

 Coefficients of singly external configurations greater than 0.0500000
 =====================================================================

 220\2   4.2     0.0139669  -0.0683165
 2202\   4.3     0.0139669  -0.0683165
 2202\   3.3     0.0269382  -0.0557049
 220\2   3.2     0.0269382  -0.0557049
 2\022   7.1     0.0071351  -0.0523477

 Coefficients of fixed reference functions:
 ==========================================

 State      Coefficients
   1         0.960171   -0.013117
   2         0.018013    0.944369

 Coefficients of rotated reference functions:
 ============================================

 State      Coefficients
   1         0.960257    0.002577
   2         0.002577    0.944537



 RESULTS FOR STATE 1.1
 =====================

 Coefficient of reference function:   C(0) = 0.96017093 (fixed)   0.96029976 (relaxed)   0.96025706 (rotated)

 Energy contributions of configuration classes

 CLASS          SQ.NORM        ECORR1        ECORR2
 +++++++++++++++++++++++++++++++++++++++++++++++++++
 Internals    0.00026837   -0.00000000   -0.00005945
 Singles      0.01024726   -0.01794897   -0.01881770
 Pairs        0.07416752   -0.22233266   -0.22140448
 Total        1.08468315   -0.24028163   -0.24028163
 +++++++++++++++++++++++++++++++++++++++++++++++++++


 Reference energy                    -460.10776543
 Nuclear energy                         7.05687007
 Kinetic energy                       460.45023481
 One electron energy                 -650.05100935
 Two electron energy                  182.64609222
 Virial quotient                       -0.99977807
 Correlation energy                    -0.24028163
 !MRCI STATE 1.1 Energy              -460.348047059368

 Properties without orbital relaxation:

 !MRCI STATE 1.1 Dipole moment          0.00000000     0.00000000     0.45349569
 Dipole moment /Debye                   0.00000000     0.00000000     1.15259558

 Cluster corrected energies          -460.36839486 (Davidson, fixed reference)
 Cluster corrected energies          -460.36832494 (Davidson, relaxed reference)
 Cluster corrected energies          -460.36834811 (Davidson, rotated reference)

 Cluster corrected energies          -460.36395936 (Pople, fixed reference)
 Cluster corrected energies          -460.36390243 (Pople, relaxed reference)
 Cluster corrected energies          -460.36392129 (Pople, rotated reference)


 Cluster corrections using rotated reference energy:

 Reference energy (rotated)          -460.10764181
 MRCI Correlation energy               -0.24040525

 Cluster corrected energies          -460.36833537 (Davidson, relaxed reference)
 Cluster corrected energies          -460.36835856 (Davidson, rotated reference)

 Cluster corrected energies          -460.36391059 (Pople, relaxed reference)
 Cluster corrected energies          -460.36392946 (Pople, rotated reference)


 Density matrix saved on record      6000.2 (density set 1)



 RESULTS FOR STATE 2.1
 =====================

 Coefficient of reference function:   C(0) = 0.94436919 (fixed)   0.94520489 (relaxed)   0.94453745 (rotated)

 Energy contributions of configuration classes

 CLASS          SQ.NORM        ECORR1        ECORR2
 +++++++++++++++++++++++++++++++++++++++++++++++++++
 Internals    0.00177065   -0.00000000   -0.00038025
 Singles      0.05516249   -0.05446750   -0.06042241
 Pairs        0.06435281   -0.18633116   -0.17999600
 Total        1.12128594   -0.24079866   -0.24079866
 +++++++++++++++++++++++++++++++++++++++++++++++++++


 Reference energy                    -459.64488413
 Nuclear energy                         7.05687007
 Kinetic energy                       460.19614091
 One electron energy                 -646.89006908
 Two electron energy                  179.94751621
 Virial quotient                       -0.99932538
 Correlation energy                    -0.24079866
 !MRCI STATE 2.1 Energy              -459.885682793291

 Properties without orbital relaxation:

 !MRCI STATE 2.1 Dipole moment          0.00000000     0.00000000    -1.26837008
 Dipole moment /Debye                   0.00000000     0.00000000    -3.22366403

 Cluster corrected energies          -459.91488829 (Davidson, fixed reference)
 Cluster corrected energies          -459.91441105 (Davidson, relaxed reference)
 Cluster corrected energies          -459.91479210 (Davidson, rotated reference)

 Cluster corrected energies          -459.90892856 (Pople, fixed reference)
 Cluster corrected energies          -459.90852705 (Pople, relaxed reference)
 Cluster corrected energies          -459.90884758 (Pople, rotated reference)


 Cluster corrections using rotated reference energy:

 Reference energy (rotated)          -459.64500775
 MRCI Correlation energy               -0.24067504

 Cluster corrected energies          -459.91439630 (Davidson, relaxed reference)
 Cluster corrected energies          -459.91477716 (Davidson, rotated reference)

 Cluster corrected energies          -459.90851533 (Pople, relaxed reference)
 Cluster corrected energies          -459.90883569 (Pople, rotated reference)


 Density matrix saved on record      6000.2 (density set 2)

 Transition density matrix for states < 2.1|| 1.1> saved on      6000.2 (density set   3)

 !MRCI trans          <2.1|DMZ|1.1>    -1.116987248169 au =    -2.838912450202 Debye


 **********************************************************************************************************************************
 DATASETS  * FILE   NREC   LENGTH (MB)   RECORD NAMES
              1      20      114.02       500      610      700      900      950      970     1000      129      960     1100   
                                          VAR    BASINP    GEOM    SYMINP    ZMAT    AOBASIS   BASIS     P2S    ABASIS      S 
                                         1400     1410     1200     1210     1080     1600     1650     1300     1700     1380   
                                           T        V       H0       H01     AOSYM     SMH    MOLCAS    ERIS     OPER     JKOP   

              2       6        8.35       700     1000      520     2100     2140     6000   
                                         GEOM     BASIS   MCVARS     RHF     MCSCF    MRCI   

 PROGRAMS   *        TOTAL      MRCI     MULTI        HF       INT
 CPU TIMES  *        13.47      7.49      1.21      0.73      3.93
 REAL TIME  *        14.57 SEC
 DISK USED  *       272.15 MB      
 **********************************************************************************************************************************

 Dump information in style XYZ to clh.xyz                                                                         


 **********************************************************************************************************************************


 PROGRAM * MATROP

 
 Density D read from record              6000.2  Type=MRCI/CHARGE (state 1.1)

 MATRIX D               

 SYMMETRY BLOCK 1.1
 
    1.99999721  -0.00007809   0.00000449  -0.00008586   0.00028278  -0.00022437  -0.00008841   0.00286069   0.00907703  -0.00156701
   -0.00385214  -0.00438403  -0.00156024  -0.00012684  -0.00000000   0.00005178  -0.00000000   0.00002444  -0.00000000  -0.00001705
   -0.00000000  -0.00005917   0.00000000   0.00002114   0.00000000   0.00000349   0.00000000  -0.00001652   0.00000000   0.00000000
    0.00001026  -0.00000000   0.00000000  -0.00000000   0.00000000  -0.00000023  -0.00037068   0.00002835   0.00006144   0.00023339
    0.00007258   0.00000345  -0.00001616   0.00008526  -0.00003406   0.00000618   0.00000000  -0.00002626  -0.00000000  -0.00005749
    0.00000000  -0.00000240   0.00000000   0.00003039   0.00000000  -0.00000133  -0.00000000  -0.00000000
 
   -0.00007809   2.00141830   0.00449014   0.00338667  -0.00167849  -0.00671598   0.00030546  -0.00428100  -0.02900821   0.00256306
    0.00705387   0.00857836   0.00417480  -0.00041570  -0.00000000  -0.00063463  -0.00000000   0.00029779  -0.00000000   0.00161848
   -0.00000000  -0.00017392   0.00000000   0.00010090   0.00000000  -0.00005817   0.00000000  -0.00001171  -0.00000000   0.00000000
    0.00005811   0.00000000   0.00000000  -0.00000000   0.00000000   0.00003709  -0.01233924   0.00007931   0.00044486   0.00269873
    0.00113310   0.00000819   0.00007981   0.00056420   0.00037580  -0.00000076   0.00000000  -0.00004101  -0.00000000  -0.00016135
   -0.00000000  -0.00000327  -0.00000000   0.00002388  -0.00000000   0.00001356  -0.00000000  -0.00000000
 
    0.00000449   0.00449014   1.92883896   0.00459866   0.00690189  -0.03032943   0.01824598   0.00080492  -0.27070789  -0.00416667
   -0.00006853   0.01472881   0.00950530   0.00200396  -0.00000000   0.00980313   0.00000000  -0.00075858  -0.00000000   0.00056907
    0.00000000   0.00298449   0.00000000   0.00210407   0.00000000   0.00112617   0.00000000   0.00158512  -0.00000003   0.00000000
    0.00091253   0.00000001  -0.00000000   0.00000000  -0.00000000   0.00063344   0.27660774  -0.00531307  -0.04992137  -0.17703292
   -0.05037510  -0.00129767  -0.00610568  -0.01234465   0.00644991   0.00048673  -0.00000000   0.00180511   0.00000000  -0.00022201
   -0.00000000  -0.00008749  -0.00000000  -0.00010328  -0.00000000   0.00000706   0.00000000  -0.00000000
 
   -0.00008586   0.00338667   0.00459866   0.00480547  -0.00523379  -0.00716823  -0.00026548  -0.00025943  -0.00575579  -0.00006321
    0.00061963   0.00083795   0.00063368  -0.00027929  -0.00000000   0.00036920  -0.00000000   0.00010674  -0.00000000  -0.00000930
   -0.00000000  -0.00013125   0.00000000  -0.00004385  -0.00000000  -0.00005212   0.00000000  -0.00003690   0.00000000   0.00000000
   -0.00001005  -0.00000000   0.00000000  -0.00000000   0.00000000   0.00000375  -0.00383499   0.00006634   0.00043541   0.00153227
    0.00051382   0.00001688   0.00004004   0.00031931  -0.00007124   0.00000060   0.00000000  -0.00005824   0.00000000  -0.00013931
    0.00000000  -0.00000449  -0.00000000   0.00005648  -0.00000000   0.00000039  -0.00000000  -0.00000000
 
    0.00028278  -0.00167849   0.00690189  -0.00523379   0.01690861  -0.00936334  -0.00886968   0.00273924  -0.00368677   0.00060408
    0.00022302   0.00149591   0.00100856   0.00004614   0.00000000  -0.00138844   0.00000000  -0.00041035   0.00000000   0.00000535
    0.00000000  -0.00025266  -0.00000000  -0.00027317  -0.00000000   0.00019846  -0.00000000  -0.00012804  -0.00000000  -0.00000000
    0.00000686   0.00000000  -0.00000000   0.00000000  -0.00000000  -0.00003392  -0.00100594  -0.00012209   0.00181603   0.00198158
    0.00023326  -0.00000576   0.00002026  -0.00103894  -0.00059961  -0.00000977  -0.00000000   0.00016038  -0.00000000   0.00041755
    0.00000000   0.00000164   0.00000000  -0.00008491   0.00000000  -0.00000600   0.00000000   0.00000000
 
   -0.00022437  -0.00671598  -0.03032943  -0.00716823  -0.00936334   0.04426662   0.02135379  -0.00373975  -0.00836512  -0.00294017
   -0.00531978  -0.00566495  -0.00137239   0.00041516  -0.00000000  -0.00108298   0.00000000  -0.00106100   0.00000000  -0.00053057
   -0.00000000   0.00091713  -0.00000000   0.00047399  -0.00000000  -0.00058981  -0.00000000   0.00046714   0.00000000  -0.00000000
   -0.00001349   0.00000000   0.00000000   0.00000000  -0.00000000   0.00003239  -0.04028288   0.00061407  -0.00470481   0.00022200
    0.00548977   0.00004458   0.00017231   0.00395267   0.00435291   0.00000204  -0.00000000  -0.00046915   0.00000000  -0.00105687
   -0.00000000   0.00005491   0.00000000   0.00008086   0.00000000  -0.00000498   0.00000000   0.00000000
 
   -0.00008841   0.00030546   0.01824598  -0.00026548  -0.00886968   0.02135379   0.03456695  -0.00025576  -0.15269014   0.00004943
   -0.00061457   0.01031087   0.01320012  -0.00488608   0.00000000  -0.00850889   0.00000000  -0.00347431   0.00000000  -0.00174710
    0.00000000  -0.00079475   0.00000000  -0.00156236   0.00000000  -0.00098724   0.00000000  -0.00025825   0.00000000   0.00000000
   -0.00020909   0.00000000  -0.00000000   0.00000000   0.00000000  -0.00014767  -0.15593004   0.00141119   0.00635220   0.02319916
    0.02026931   0.00027624   0.00087635   0.00545852   0.00651566  -0.00008659   0.00000000  -0.00051381  -0.00000000  -0.00166982
    0.00000000   0.00006522   0.00000000   0.00033135  -0.00000000  -0.00005892   0.00000000  -0.00000000
 
    0.00286069  -0.00428100   0.00080492  -0.00025943   0.00273924  -0.00373975  -0.00025576   1.94509028  -0.07380696   0.01591242
    0.02564755   0.02570708   0.01054317  -0.00165209   0.00000000  -0.00228998   0.00000000   0.00005924   0.00000000  -0.00058139
    0.00000000   0.00006754   0.00000000  -0.00204847   0.00000000   0.00199062   0.00000000  -0.00032652   0.00000000   0.00000000
    0.00016362  -0.00000000  -0.00000000   0.00000000   0.00000000  -0.00000416  -0.00958535   0.00029719   0.00293894   0.00250719
    0.00221457  -0.00003374  -0.00024205  -0.00142950  -0.00060531   0.00006770  -0.00000000   0.00004287  -0.00000000   0.00039844
    0.00000000   0.00003079   0.00000000   0.00017393  -0.00000000  -0.00005143   0.00000000   0.00000000
 
    0.00907703  -0.02900821  -0.27070789  -0.00575579  -0.00368677  -0.00836512  -0.15269014  -0.07380696   1.41000889  -0.03363737
   -0.03700290  -0.16962801  -0.14495961   0.03838342   0.00000000   0.06729392   0.00000000   0.02122011   0.00000000   0.01218000
   -0.00000000   0.00979957  -0.00000000   0.01792495  -0.00000000   0.00521716   0.00000000   0.00514319   0.00000000   0.00000000
    0.00246343  -0.00000000   0.00000000   0.00000000  -0.00000000   0.00178158   1.09303701  -0.00724279  -0.08974283  -0.20214331
   -0.14757589  -0.00207819  -0.00771739  -0.01876114  -0.02972782   0.00107674  -0.00000000   0.00039353   0.00000000   0.00485492
   -0.00000000  -0.00033391  -0.00000000  -0.00100598   0.00000000   0.00045955   0.00000000   0.00000000
 
   -0.00156701   0.00256306  -0.00416667  -0.00006321   0.00060408  -0.00294017   0.00004943   0.01591242  -0.03363737   0.00599162
    0.00700454   0.00991010   0.00494440  -0.00105289   0.00000000  -0.00124000  -0.00000000   0.00041318  -0.00000000  -0.00002893
    0.00000000  -0.00030386  -0.00000000  -0.00069454  -0.00000000   0.00010251  -0.00000000  -0.00029732   0.00000000  -0.00000000
   -0.00011101  -0.00000000   0.00000000  -0.00000000  -0.00000000  -0.00008768  -0.00792306  -0.00038772   0.00391239   0.00392212
    0.00111252   0.00001968   0.00019202  -0.00163748  -0.00103524  -0.00005328   0.00000000   0.00032850  -0.00000000   0.00055584
   -0.00000000  -0.00001813  -0.00000000  -0.00013126   0.00000000  -0.00000229  -0.00000000  -0.00000000
 
   -0.00385214   0.00705387  -0.00006853   0.00061963   0.00022302  -0.00531978  -0.00061457   0.02564755  -0.03700290   0.00700454
    0.01901663   0.01622505   0.00591463  -0.00100581  -0.00000000   0.00027300  -0.00000000   0.00058168  -0.00000000   0.00004781
   -0.00000000  -0.00030592  -0.00000000  -0.00057997  -0.00000000   0.00007083  -0.00000000  -0.00017764  -0.00000000  -0.00000000
   -0.00001693   0.00000000   0.00000000  -0.00000000   0.00000000  -0.00005537  -0.00110005  -0.00039391   0.00169792   0.00130284
    0.00001569  -0.00001165   0.00003953  -0.00109986  -0.00082320  -0.00001582  -0.00000000   0.00017835   0.00000000   0.00027355
   -0.00000000  -0.00001795  -0.00000000  -0.00002873  -0.00000000  -0.00000776  -0.00000000  -0.00000000
 
   -0.00438403   0.00857836   0.01472881   0.00083795   0.00149591  -0.00566495   0.01031087   0.02570708  -0.16962801   0.00991010
    0.01622505   0.03650164   0.02123426  -0.00501526  -0.00000000  -0.00752738   0.00000000  -0.00105515   0.00000000  -0.00118285
   -0.00000000  -0.00121229  -0.00000000  -0.00270650  -0.00000000  -0.00032874  -0.00000000  -0.00086431   0.00000000  -0.00000000
   -0.00039407   0.00000000   0.00000000  -0.00000000  -0.00000000  -0.00031175  -0.09666972  -0.00029970   0.01196150   0.02268381
    0.01347734   0.00018921   0.00101727  -0.00052783   0.00075968  -0.00017083   0.00000000   0.00036992   0.00000000   0.00037982
   -0.00000000   0.00000422   0.00000000  -0.00007267  -0.00000000  -0.00004438  -0.00000000  -0.00000000
 
   -0.00156024   0.00417480   0.00950530   0.00063368   0.00100856  -0.00137239   0.01320012   0.01054317  -0.14495961   0.00494440
    0.00591463   0.02123426   0.01634510  -0.00430555   0.00000000  -0.00731591   0.00000000  -0.00195058   0.00000000  -0.00120781
    0.00000000  -0.00108842   0.00000000  -0.00202600   0.00000000  -0.00046427  -0.00000000  -0.00063234   0.00000000  -0.00000000
   -0.00028801   0.00000000  -0.00000000  -0.00000000   0.00000000  -0.00021785  -0.10703860   0.00052104   0.01030860   0.02263600
    0.01440267   0.00021735   0.00088319   0.00135783   0.00224500  -0.00012733   0.00000000   0.00004866  -0.00000000  -0.00025727
    0.00000000   0.00002784   0.00000000   0.00005878  -0.00000000  -0.00004693  -0.00000000  -0.00000000
 
   -0.00012684  -0.00041570   0.00200396  -0.00027929   0.00004614   0.00041516  -0.00488608  -0.00165209   0.03838342  -0.00105289
   -0.00100581  -0.00501526  -0.00430555   0.00298801   0.00000000   0.00471603   0.00000000   0.00114837   0.00000000   0.00052633
   -0.00000000   0.00057086  -0.00000000   0.00075455  -0.00000000   0.00015671  -0.00000000   0.00016814   0.00000000   0.00000000
    0.00006539  -0.00000000   0.00000000  -0.00000000   0.00000000   0.00007130   0.03609050  -0.00020283  -0.00397078  -0.00777755
   -0.00491098  -0.00008203  -0.00027602  -0.00037593  -0.00078649   0.00004216  -0.00000000  -0.00003297   0.00000000   0.00010280
   -0.00000000  -0.00001037  -0.00000000  -0.00002974   0.00000000   0.00002095   0.00000000   0.00000000
 
   -0.00000000  -0.00000000  -0.00000000  -0.00000000   0.00000000  -0.00000000   0.00000000   0.00000000   0.00000000   0.00000000
   -0.00000000  -0.00000000   0.00000000   0.00000000   0.00318335  -0.00000000   0.00320612   0.00000000   0.00067407  -0.00000000
    0.00026433  -0.00000000   0.00015910  -0.00000000   0.00005792  -0.00000000   0.00003039  -0.00000000   0.00000000  -0.00002584
   -0.00000000   0.00000000  -0.00001920   0.00001018  -0.00000000  -0.00000000  -0.00000000   0.00000000   0.00000000   0.00000000
   -0.00000000  -0.00000000   0.00000000  -0.00000000  -0.00000000   0.00000000   0.00000276   0.00000000   0.00000842   0.00000000
    0.00006696   0.00000000  -0.00000062  -0.00000000  -0.00001826   0.00000000   0.00000000   0.00000116
 
    0.00005178  -0.00063463   0.00980313   0.00036920  -0.00138844  -0.00108298  -0.00850889  -0.00228998   0.06729392  -0.00124000
    0.00027300  -0.00752738  -0.00731591   0.00471603  -0.00000000   0.01031660  -0.00000000   0.00260823  -0.00000000   0.00099426
   -0.00000000   0.00086821  -0.00000000   0.00153372  -0.00000000   0.00034214  -0.00000000   0.00037896   0.00000000   0.00000000
    0.00015503  -0.00000000   0.00000000  -0.00000000   0.00000000   0.00018074   0.07006689  -0.00029932  -0.00732560  -0.01555636
   -0.00964357  -0.00015781  -0.00061641  -0.00084648  -0.00154409   0.00008810  -0.00000000  -0.00003000   0.00000000   0.00018199
    0.00000000  -0.00002563  -0.00000000  -0.00007011   0.00000000   0.00004348  -0.00000000   0.00000000
 
   -0.00000000  -0.00000000   0.00000000  -0.00000000   0.00000000   0.00000000   0.00000000   0.00000000   0.00000000  -0.00000000
   -0.00000000   0.00000000   0.00000000   0.00000000   0.00320612  -0.00000000   0.00622266  -0.00000000   0.00169984  -0.00000000
    0.00031941   0.00000000   0.00014113  -0.00000000   0.00002905  -0.00000000  -0.00000595   0.00000000   0.00000000  -0.00002816
   -0.00000000   0.00000000  -0.00003264   0.00003373  -0.00000000   0.00000000  -0.00000000   0.00000000   0.00000000  -0.00000000
   -0.00000000  -0.00000000  -0.00000000  -0.00000000  -0.00000000   0.00000000   0.00000298   0.00000000   0.00001471   0.00000000
    0.00006261  -0.00000000  -0.00000359  -0.00000000  -0.00001264  -0.00000000   0.00000000   0.00000179
 
    0.00002444   0.00029779  -0.00075858   0.00010674  -0.00041035  -0.00106100  -0.00347431   0.00005924   0.02122011   0.00041318
    0.00058168  -0.00105515  -0.00195058   0.00114837   0.00000000   0.00260823  -0.00000000   0.00118452  -0.00000000   0.00029184
   -0.00000000   0.00021665  -0.00000000   0.00028483  -0.00000000   0.00016576  -0.00000000   0.00007399   0.00000000   0.00000000
    0.00002189  -0.00000000   0.00000000   0.00000000  -0.00000000   0.00003322   0.02526041  -0.00026992  -0.00135020  -0.00461379
   -0.00342539  -0.00005135  -0.00016192  -0.00097969  -0.00098785   0.00001230   0.00000000   0.00012279   0.00000000   0.00030576
   -0.00000000  -0.00001669  -0.00000000  -0.00008625   0.00000000   0.00001728  -0.00000000   0.00000000
 
   -0.00000000  -0.00000000  -0.00000000  -0.00000000   0.00000000   0.00000000   0.00000000   0.00000000   0.00000000  -0.00000000
   -0.00000000   0.00000000   0.00000000   0.00000000   0.00067407  -0.00000000   0.00169984  -0.00000000   0.00084385  -0.00000000
    0.00003227   0.00000000   0.00004233  -0.00000000   0.00001032  -0.00000000  -0.00001406  -0.00000000  -0.00000000   0.00000092
    0.00000000   0.00000000  -0.00001104   0.00000808  -0.00000000  -0.00000000  -0.00000000   0.00000000  -0.00000000   0.00000000
   -0.00000000   0.00000000  -0.00000000  -0.00000000   0.00000000   0.00000000   0.00000121  -0.00000000   0.00000076   0.00000000
    0.00000772  -0.00000000  -0.00000194   0.00000000   0.00000484  -0.00000000   0.00000000   0.00000022
 
   -0.00001705   0.00161848   0.00056907  -0.00000930   0.00000535  -0.00053057  -0.00174710  -0.00058139   0.01218000  -0.00002893
    0.00004781  -0.00118285  -0.00120781   0.00052633  -0.00000000   0.00099426  -0.00000000   0.00029184  -0.00000000   0.00016270
   -0.00000000   0.00010077  -0.00000000   0.00017258  -0.00000000   0.00006762  -0.00000000   0.00003199   0.00000000  -0.00000000
    0.00002094  -0.00000000   0.00000000  -0.00000000  -0.00000000   0.00001656   0.01262370  -0.00009579  -0.00081242  -0.00242365
   -0.00172244  -0.00002547  -0.00008963  -0.00036309  -0.00041868   0.00000997  -0.00000000   0.00002734   0.00000000   0.00009276
   -0.00000000  -0.00000476  -0.00000000  -0.00001881   0.00000000   0.00000486  -0.00000000   0.00000000
 
   -0.00000000  -0.00000000   0.00000000  -0.00000000   0.00000000  -0.00000000   0.00000000   0.00000000  -0.00000000   0.00000000
   -0.00000000  -0.00000000   0.00000000  -0.00000000   0.00026433  -0.00000000   0.00031941  -0.00000000   0.00003227  -0.00000000
    0.00003273  -0.00000000   0.00001265  -0.00000000   0.00000343  -0.00000000   0.00000327   0.00000000   0.00000000  -0.00000516
   -0.00000000  -0.00000000  -0.00000192   0.00000072  -0.00000000   0.00000000   0.00000000   0.00000000   0.00000000  -0.00000000
   -0.00000000  -0.00000000  -0.00000000  -0.00000000  -0.00000000   0.00000000   0.00000009   0.00000000   0.00000129   0.00000000
    0.00000553   0.00000000   0.00000008  -0.00000000  -0.00000240   0.00000000  -0.00000000   0.00000009
 
   -0.00005917  -0.00017392   0.00298449  -0.00013125  -0.00025266   0.00091713  -0.00079475   0.00006754   0.00979957  -0.00030386
   -0.00030592  -0.00121229  -0.00108842   0.00057086  -0.00000000   0.00086821   0.00000000   0.00021665   0.00000000   0.00010077
   -0.00000000   0.00035616  -0.00000000   0.00038204  -0.00000000   0.00007550  -0.00000000   0.00007749   0.00000000   0.00000000
    0.00001585   0.00000000   0.00000000  -0.00000000   0.00000000   0.00001622   0.00881154  -0.00006049  -0.00135580  -0.00230456
   -0.00123287  -0.00002166  -0.00008230   0.00000188  -0.00004496   0.00001201  -0.00000000  -0.00001161   0.00000000  -0.00000443
   -0.00000000  -0.00000255  -0.00000000  -0.00000623   0.00000000   0.00000512   0.00000000   0.00000000
 
    0.00000000   0.00000000   0.00000000   0.00000000  -0.00000000  -0.00000000   0.00000000   0.00000000  -0.00000000  -0.00000000
   -0.00000000  -0.00000000   0.00000000  -0.00000000   0.00015910  -0.00000000   0.00014113  -0.00000000   0.00004233  -0.00000000
    0.00001265  -0.00000000   0.00023512  -0.00000000   0.00019776  -0.00000000   0.00005343  -0.00000000   0.00000000   0.00000386
    0.00000000  -0.00000000  -0.00000796  -0.00000378  -0.00000000  -0.00000000  -0.00000000   0.00000000   0.00000000   0.00000000
   -0.00000000  -0.00000000   0.00000000  -0.00000000   0.00000000   0.00000000   0.00000118   0.00000000  -0.00000003   0.00000000
    0.00000970  -0.00000000  -0.00000062  -0.00000000   0.00000022   0.00000000  -0.00000000   0.00000001
 
    0.00002114   0.00010090   0.00210407  -0.00004385  -0.00027317   0.00047399  -0.00156236  -0.00204847   0.01792495  -0.00069454
   -0.00057997  -0.00270650  -0.00202600   0.00075455  -0.00000000   0.00153372  -0.00000000   0.00028483  -0.00000000   0.00017258
   -0.00000000   0.00038204  -0.00000000   0.00090266  -0.00000000   0.00019295  -0.00000000   0.00015636   0.00000000  -0.00000000
    0.00006669   0.00000000   0.00000000   0.00000000  -0.00000000   0.00004423   0.01450249   0.00000689  -0.00212897  -0.00363960
   -0.00201494  -0.00003245  -0.00017181   0.00009993  -0.00009051   0.00002602  -0.00000000  -0.00003508   0.00000000  -0.00005740
    0.00000000  -0.00000554  -0.00000000  -0.00000303  -0.00000000   0.00001058   0.00000000   0.00000000
 
    0.00000000   0.00000000   0.00000000  -0.00000000  -0.00000000  -0.00000000   0.00000000   0.00000000  -0.00000000  -0.00000000
   -0.00000000  -0.00000000   0.00000000  -0.00000000   0.00005792  -0.00000000   0.00002905  -0.00000000   0.00001032  -0.00000000
    0.00000343  -0.00000000   0.00019776  -0.00000000   0.00054847  -0.00000000   0.00016546  -0.00000000  -0.00000000   0.00000977
   -0.00000000   0.00000000   0.00000239   0.00000060   0.00000000  -0.00000000  -0.00000000  -0.00000000   0.00000000  -0.00000000
   -0.00000000  -0.00000000   0.00000000  -0.00000000   0.00000000  -0.00000000   0.00000022   0.00000000   0.00000873   0.00000000
    0.00001090  -0.00000000  -0.00000220  -0.00000000  -0.00000623   0.00000000  -0.00000000   0.00000278
 
    0.00000349  -0.00005817   0.00112617  -0.00005212   0.00019846  -0.00058981  -0.00098724   0.00199062   0.00521716   0.00010251
    0.00007083  -0.00032874  -0.00046427   0.00015671  -0.00000000   0.00034214  -0.00000000   0.00016576  -0.00000000   0.00006762
   -0.00000000   0.00007550  -0.00000000   0.00019295  -0.00000000   0.00019088  -0.00000000   0.00000254   0.00000000  -0.00000000
    0.00001609   0.00000000  -0.00000000   0.00000000  -0.00000000   0.00000483   0.00634109  -0.00006748  -0.00025883  -0.00115289
   -0.00087093  -0.00001299  -0.00005736  -0.00031742  -0.00028704   0.00000436  -0.00000000   0.00004581   0.00000000   0.00008733
   -0.00000000  -0.00000600  -0.00000000  -0.00002237   0.00000000   0.00000458   0.00000000   0.00000000
 
    0.00000000   0.00000000   0.00000000   0.00000000  -0.00000000  -0.00000000   0.00000000   0.00000000   0.00000000  -0.00000000
   -0.00000000  -0.00000000  -0.00000000  -0.00000000   0.00003039  -0.00000000  -0.00000595  -0.00000000  -0.00001406  -0.00000000
    0.00000327  -0.00000000   0.00005343  -0.00000000   0.00016546  -0.00000000   0.00015786  -0.00000000   0.00000000  -0.00000758
   -0.00000000  -0.00000000  -0.00000074  -0.00000006   0.00000000  -0.00000000  -0.00000000  -0.00000000   0.00000000   0.00000000
    0.00000000   0.00000000   0.00000000  -0.00000000   0.00000000  -0.00000000  -0.00000027   0.00000000   0.00000328  -0.00000000
    0.00000073  -0.00000000  -0.00000074  -0.00000000  -0.00000254   0.00000000   0.00000000   0.00000128
 
   -0.00001652  -0.00001171   0.00158512  -0.00003690  -0.00012804   0.00046714  -0.00025825  -0.00032652   0.00514319  -0.00029732
   -0.00017764  -0.00086431  -0.00063234   0.00016814  -0.00000000   0.00037896   0.00000000   0.00007399  -0.00000000   0.00003199
    0.00000000   0.00007749  -0.00000000   0.00015636  -0.00000000   0.00000254  -0.00000000   0.00016347   0.00000000   0.00000000
    0.00005691   0.00000000   0.00000000   0.00000000   0.00000000   0.00002558   0.00383595   0.00002986  -0.00071016  -0.00129667
   -0.00054464  -0.00000924  -0.00005798   0.00008665   0.00009319   0.00000823  -0.00000000  -0.00001075  -0.00000000  -0.00003356
    0.00000000  -0.00000111  -0.00000000  -0.00000324   0.00000000   0.00000314   0.00000000   0.00000000
 
    0.00000000  -0.00000000  -0.00000003   0.00000000  -0.00000000   0.00000000   0.00000000   0.00000000   0.00000000   0.00000000
   -0.00000000   0.00000000   0.00000000   0.00000000   0.00000000   0.00000000   0.00000000   0.00000000  -0.00000000   0.00000000
    0.00000000   0.00000000   0.00000000   0.00000000  -0.00000000   0.00000000   0.00000000   0.00000000   0.00016937  -0.00000000
   -0.00000000   0.00005575  -0.00000000  -0.00000000   0.00000000   0.00000000  -0.00000000   0.00000000  -0.00000000  -0.00000000
    0.00000000   0.00000000   0.00000000   0.00000000   0.00000000  -0.00000000  -0.00000000  -0.00000000   0.00000000  -0.00000000
   -0.00000000   0.00000000  -0.00000000  -0.00000000   0.00000000   0.00000000   0.00000025  -0.00000000
 
    0.00000000   0.00000000   0.00000000   0.00000000  -0.00000000  -0.00000000   0.00000000   0.00000000   0.00000000  -0.00000000
   -0.00000000  -0.00000000  -0.00000000   0.00000000  -0.00002584   0.00000000  -0.00002816   0.00000000   0.00000092  -0.00000000
   -0.00000516   0.00000000   0.00000386  -0.00000000   0.00000977  -0.00000000  -0.00000758   0.00000000  -0.00000000   0.00012934
   -0.00000000  -0.00000000   0.00004345   0.00000780   0.00000000   0.00000000  -0.00000000   0.00000000  -0.00000000  -0.00000000
   -0.00000000   0.00000000  -0.00000000  -0.00000000   0.00000000  -0.00000000   0.00000173   0.00000000  -0.00000056  -0.00000000
    0.00002787  -0.00000000  -0.00000070   0.00000000  -0.00000484   0.00000000  -0.00000000   0.00000108
 
    0.00001026   0.00005811   0.00091253  -0.00001005   0.00000686  -0.00001349  -0.00020909   0.00016362   0.00246343  -0.00011101
   -0.00001693  -0.00039407  -0.00028801   0.00006539  -0.00000000   0.00015503  -0.00000000   0.00002189   0.00000000   0.00002094
   -0.00000000   0.00001585   0.00000000   0.00006669  -0.00000000   0.00001609  -0.00000000   0.00005691  -0.00000000  -0.00000000
    0.00006792   0.00000000   0.00000000  -0.00000000  -0.00000000   0.00001440   0.00215776   0.00002981  -0.00029493  -0.00061773
   -0.00030729  -0.00000436  -0.00003958   0.00001325  -0.00000129   0.00000575  -0.00000000  -0.00000321   0.00000000  -0.00001261
   -0.00000000  -0.00000147  -0.00000000   0.00000034   0.00000000   0.00000188   0.00000000   0.00000000
 
   -0.00000000   0.00000000   0.00000001  -0.00000000   0.00000000   0.00000000   0.00000000  -0.00000000  -0.00000000  -0.00000000
    0.00000000   0.00000000   0.00000000  -0.00000000   0.00000000  -0.00000000   0.00000000  -0.00000000   0.00000000  -0.00000000
   -0.00000000   0.00000000  -0.00000000   0.00000000   0.00000000   0.00000000  -0.00000000   0.00000000   0.00005575  -0.00000000
    0.00000000   0.00006838  -0.00000000   0.00000000  -0.00000165   0.00000000   0.00000000  -0.00000000  -0.00000000  -0.00000000
   -0.00000000  -0.00000000  -0.00000000   0.00000000   0.00000000   0.00000000  -0.00000000   0.00000000   0.00000000  -0.00000000
   -0.00000000  -0.00000000  -0.00000000   0.00000000   0.00000000  -0.00000000   0.00000006  -0.00000000
 
    0.00000000   0.00000000  -0.00000000   0.00000000  -0.00000000   0.00000000  -0.00000000  -0.00000000   0.00000000   0.00000000
    0.00000000   0.00000000  -0.00000000   0.00000000  -0.00001920   0.00000000  -0.00003264   0.00000000  -0.00001104   0.00000000
   -0.00000192   0.00000000  -0.00000796   0.00000000   0.00000239  -0.00000000  -0.00000074   0.00000000  -0.00000000   0.00004345
    0.00000000  -0.00000000   0.00005922   0.00000598   0.00000000  -0.00000000   0.00000000   0.00000000  -0.00000000  -0.00000000
   -0.00000000   0.00000000  -0.00000000   0.00000000   0.00000000   0.00000000  -0.00000008  -0.00000000   0.00000448  -0.00000000
    0.00001007  -0.00000000  -0.00000093   0.00000000  -0.00000549  -0.00000000  -0.00000000   0.00000163
 
   -0.00000000  -0.00000000   0.00000000  -0.00000000   0.00000000   0.00000000   0.00000000   0.00000000   0.00000000  -0.00000000
   -0.00000000  -0.00000000  -0.00000000  -0.00000000   0.00001018  -0.00000000   0.00003373   0.00000000   0.00000808  -0.00000000
    0.00000072  -0.00000000  -0.00000378   0.00000000   0.00000060   0.00000000  -0.00000006   0.00000000  -0.00000000   0.00000780
   -0.00000000   0.00000000   0.00000598   0.00002561  -0.00000000   0.00000000   0.00000000  -0.00000000  -0.00000000  -0.00000000
   -0.00000000  -0.00000000   0.00000000  -0.00000000  -0.00000000  -0.00000000   0.00000005   0.00000000   0.00000310   0.00000000
    0.00001049  -0.00000000  -0.00000019   0.00000000  -0.00000476  -0.00000000  -0.00000000   0.00000061
 
    0.00000000   0.00000000  -0.00000000   0.00000000  -0.00000000  -0.00000000   0.00000000   0.00000000  -0.00000000  -0.00000000
    0.00000000  -0.00000000   0.00000000   0.00000000  -0.00000000   0.00000000  -0.00000000  -0.00000000  -0.00000000  -0.00000000
   -0.00000000   0.00000000  -0.00000000  -0.00000000   0.00000000  -0.00000000   0.00000000   0.00000000   0.00000000   0.00000000
   -0.00000000  -0.00000165   0.00000000  -0.00000000   0.00002782  -0.00000000  -0.00000000  -0.00000000  -0.00000000   0.00000000
    0.00000000  -0.00000000   0.00000000   0.00000000   0.00000000   0.00000000  -0.00000000  -0.00000000   0.00000000  -0.00000000
   -0.00000000   0.00000000  -0.00000000   0.00000000  -0.00000000  -0.00000000   0.00000030   0.00000000
 
   -0.00000023   0.00003709   0.00063344   0.00000375  -0.00003392   0.00003239  -0.00014767  -0.00000416   0.00178158  -0.00008768
   -0.00005537  -0.00031175  -0.00021785   0.00007130  -0.00000000   0.00018074   0.00000000   0.00003322  -0.00000000   0.00001656
    0.00000000   0.00001622  -0.00000000   0.00004423  -0.00000000   0.00000483  -0.00000000   0.00002558   0.00000000   0.00000000
    0.00001440   0.00000000  -0.00000000   0.00000000  -0.00000000   0.00003170   0.00151967   0.00001438  -0.00022635  -0.00042942
   -0.00021563  -0.00000361  -0.00002177   0.00000956  -0.00000670   0.00000284   0.00000000  -0.00000230   0.00000000  -0.00000024
   -0.00000000  -0.00000055  -0.00000000  -0.00000436   0.00000000   0.00000185   0.00000000  -0.00000000
 
   -0.00037068  -0.01233924   0.27660774  -0.00383499  -0.00100594  -0.04028288  -0.15593004  -0.00958535   1.09303701  -0.00792306
   -0.00110005  -0.09666972  -0.10703860   0.03609050  -0.00000000   0.07006689  -0.00000000   0.02526041  -0.00000000   0.01262370
    0.00000000   0.00881154  -0.00000000   0.01450249  -0.00000000   0.00634109  -0.00000000   0.00383595  -0.00000000  -0.00000000
    0.00215776   0.00000000   0.00000000   0.00000000  -0.00000000   0.00151967   1.21751159  -0.00829508  -0.07736213  -0.24984663
   -0.16769821  -0.00242921  -0.00908470  -0.03632826  -0.03770070   0.00092099  -0.00000000   0.00320805   0.00000000   0.00891379
   -0.00000000  -0.00047290  -0.00000000  -0.00191011   0.00000000   0.00044268  -0.00000000   0.00000000
 
    0.00002835   0.00007931  -0.00531307   0.00006634  -0.00012209   0.00061407   0.00141119   0.00029719  -0.00724279  -0.00038772
   -0.00039391  -0.00029970   0.00052104  -0.00020283   0.00000000  -0.00029932   0.00000000  -0.00026992   0.00000000  -0.00009579
    0.00000000  -0.00006049   0.00000000   0.00000689  -0.00000000  -0.00006748  -0.00000000   0.00002986   0.00000000   0.00000000
    0.00002981  -0.00000000   0.00000000  -0.00000000  -0.00000000   0.00001438  -0.00829508   0.00063586   0.00012469   0.00105071
    0.00108089   0.00002748  -0.00008605   0.00064582   0.00052693   0.00001595   0.00000000  -0.00006833  -0.00000000  -0.00019515
    0.00000000   0.00000018   0.00000000   0.00002868   0.00000000   0.00000251   0.00000000   0.00000000
 
    0.00006144   0.00044486  -0.04992137   0.00043541   0.00181603  -0.00470481   0.00635220   0.00293894  -0.08974283   0.00391239
    0.00169792   0.01196150   0.01030860  -0.00397078   0.00000000  -0.00732560   0.00000000  -0.00135020  -0.00000000  -0.00081242
    0.00000000  -0.00135580   0.00000000  -0.00212897   0.00000000  -0.00025883   0.00000000  -0.00071016  -0.00000000  -0.00000000
   -0.00029493  -0.00000000  -0.00000000  -0.00000000  -0.00000000  -0.00022635  -0.07736213   0.00012469   0.01377555   0.02180510
    0.01103171   0.00019044   0.00089704  -0.00132931  -0.00012988  -0.00015334   0.00000000   0.00035058  -0.00000000   0.00054850
    0.00000000   0.00001334   0.00000000  -0.00008843  -0.00000000  -0.00003951  -0.00000000  -0.00000000
 
    0.00023339   0.00269873  -0.17703292   0.00153227   0.00198158   0.00022200   0.02319916   0.00250719  -0.20214331   0.00392212
    0.00130284   0.02268381   0.02263600  -0.00777755   0.00000000  -0.01555636  -0.00000000  -0.00461379   0.00000000  -0.00242365
   -0.00000000  -0.00230456   0.00000000  -0.00363960  -0.00000000  -0.00115289   0.00000000  -0.00129667  -0.00000000  -0.00000000
   -0.00061773  -0.00000000  -0.00000000  -0.00000000   0.00000000  -0.00042942  -0.24984663   0.00105071   0.02180510   0.06532718
    0.03557263   0.00057204   0.00244363   0.00646653   0.00498094  -0.00025710   0.00000000  -0.00055787  -0.00000000  -0.00119935
    0.00000000   0.00009216   0.00000000   0.00031810  -0.00000000  -0.00009555   0.00000000  -0.00000000
 
    0.00007258   0.00113310  -0.05037510   0.00051382   0.00023326   0.00548977   0.02026931   0.00221457  -0.14757589   0.00111252
    0.00001569   0.01347734   0.01440267  -0.00491098  -0.00000000  -0.00964357  -0.00000000  -0.00342539  -0.00000000  -0.00172244
   -0.00000000  -0.00123287  -0.00000000  -0.00201494  -0.00000000  -0.00087093   0.00000000  -0.00054464   0.00000000  -0.00000000
   -0.00030729  -0.00000000  -0.00000000  -0.00000000   0.00000000  -0.00021563  -0.16769821   0.00108089   0.01103171   0.03557263
    0.02407793   0.00034356   0.00130590   0.00508463   0.00505162  -0.00013180   0.00000000  -0.00045501  -0.00000000  -0.00121582
   -0.00000000   0.00006649   0.00000000   0.00026083  -0.00000000  -0.00006097   0.00000000  -0.00000000
 
    0.00000345   0.00000819  -0.00129767   0.00001688  -0.00000576   0.00004458   0.00027624  -0.00003374  -0.00207819   0.00001968
   -0.00001165   0.00018921   0.00021735  -0.00008203  -0.00000000  -0.00015781  -0.00000000  -0.00005135   0.00000000  -0.00002547
   -0.00000000  -0.00002166  -0.00000000  -0.00003245  -0.00000000  -0.00001299   0.00000000  -0.00000924   0.00000000   0.00000000
   -0.00000436  -0.00000000   0.00000000  -0.00000000  -0.00000000  -0.00000361  -0.00242921   0.00002748   0.00019044   0.00057204
    0.00034356   0.00000740   0.00001915   0.00007903   0.00006610  -0.00000216   0.00000000  -0.00000603  -0.00000000  -0.00001837
    0.00000000   0.00000063   0.00000000   0.00000338  -0.00000000  -0.00000052  -0.00000000  -0.00000000
 
   -0.00001616   0.00007981  -0.00610568   0.00004004   0.00002026   0.00017231   0.00087635  -0.00024205  -0.00771739   0.00019202
    0.00003953   0.00101727   0.00088319  -0.00027602   0.00000000  -0.00061641  -0.00000000  -0.00016192  -0.00000000  -0.00008963
   -0.00000000  -0.00008230   0.00000000  -0.00017181   0.00000000  -0.00005736   0.00000000  -0.00005798   0.00000000  -0.00000000
   -0.00003958  -0.00000000  -0.00000000   0.00000000   0.00000000  -0.00002177  -0.00908470  -0.00008605   0.00089704   0.00244363
    0.00130590   0.00001915   0.00016595   0.00020980   0.00016458  -0.00001981  -0.00000000  -0.00003372  -0.00000000  -0.00002999
    0.00000000   0.00000906   0.00000000   0.00001648  -0.00000000  -0.00000769   0.00000000   0.00000000
 
    0.00008526   0.00056420  -0.01234465   0.00031931  -0.00103894   0.00395267   0.00545852  -0.00142950  -0.01876114  -0.00163748
   -0.00109986  -0.00052783   0.00135783  -0.00037593  -0.00000000  -0.00084648  -0.00000000  -0.00097969  -0.00000000  -0.00036309
   -0.00000000   0.00000188  -0.00000000   0.00009993  -0.00000000  -0.00031742  -0.00000000   0.00008665   0.00000000  -0.00000000
    0.00001325   0.00000000   0.00000000  -0.00000000   0.00000000   0.00000956  -0.03632826   0.00064582  -0.00132931   0.00646653
    0.00508463   0.00007903   0.00020980   0.00344346   0.00230800   0.00002133  -0.00000000  -0.00050456   0.00000000  -0.00098847
   -0.00000000   0.00003075   0.00000000   0.00022569  -0.00000000  -0.00001299   0.00000000   0.00000000
 
   -0.00003406   0.00037580   0.00644991  -0.00007124  -0.00059961   0.00435291   0.00651566  -0.00060531  -0.02972782  -0.00103524
[...]
    0.00000000  -0.01128646   0.14371841   0.65876648   0.46857524   0.21385438
 
    0.00006583   0.00110536  -0.00456146   0.02576093  -0.03693191   0.00000000   0.06541279   0.02501030  -0.11782767   0.01698165
    0.07127530   0.00000000   0.00000000   0.00663316   0.11136217   0.00000000  -0.11014325   0.05359532  -0.01551557   0.01280738
    0.00000000   0.00000000   0.02455669   0.00000000  -0.04395019   0.00000000  -0.07228562  -0.29346351   1.64933738   0.00000000
    0.00000000   0.07108772  -0.13403834  -0.10828014  -0.13954009  -0.05808955
 
    0.00012615   0.00424404  -0.01237588  -0.22963031  -0.52774297   0.00000000   1.38672943   0.58193565   1.66796841   0.12351033
    1.78282344   0.00000000   0.00000000  -1.46252229   1.68600912   0.00000000   0.60901261  -0.43840033  -0.50882472  -0.75718384
    0.00000000   0.00000000   0.55951398   0.00000000   1.42925216   0.00000000   0.80381328   0.14490374   0.58524117   0.00000000
    0.00000000  -0.18278000   0.30277654  -0.13279824  -0.61755648  -0.18320549
 
    0.00000000   0.00000000   0.00000000   0.00000000   0.00000000   1.26657952   0.00000000   0.00000000   0.00000000   0.00000000
    0.00000000  -0.05141224  -1.03295729   0.00000000   0.00000000  -0.14394694   0.00000000   0.00000000   0.00000000   0.00000000
    0.00000000   0.69315178   0.00000000  -0.08988115   0.00000000  -0.01363363   0.00000000   0.00000000   0.00000000   0.06501303
    0.01478938   0.00000000   0.00000000   0.00000000   0.00000000   0.00000000
 
   -0.00063249   0.00400828  -0.05948945   0.04097303  -0.18000056   0.00000000  -0.43513699   0.18584552   0.09541344   0.62546654
   -0.14201615   0.00000000   0.00000000   1.52217795   1.36639513   0.00000000   0.02162348   0.77810678  -1.40215700   0.37649184
    0.00000000   0.00000000  -2.12250365   0.00000000   1.27531974   0.00000000   0.76620348   2.50495669   1.60109047   0.00000000
    0.00000000  -0.06745372   0.16687597  -1.84733092  -0.89755600  -0.47149669
 
    0.00000000   0.00000000   0.00000000   0.00000000   0.00000000  -0.45077324   0.00000000   0.00000000   0.00000000   0.00000000
    0.00000000   0.04196696   1.71372904   0.00000000   0.00000000  -0.02546774   0.00000000   0.00000000   0.00000000   0.00000000
    0.00000000  -1.77908169   0.00000000   0.34639578   0.00000000  -0.00883867   0.00000000   0.00000000   0.00000000  -0.04769339
    0.07304622   0.00000000   0.00000000   0.00000000   0.00000000   0.00000000
 
    0.00069792   0.00182811   0.01109603  -0.01232074   0.03567862   0.00000000   0.14516863  -0.02756419   0.01283251  -0.10828717
    0.00538517   0.00000000   0.00000000  -0.15077186  -0.20394814   0.00000000   0.08155336  -0.16856330   0.17842061  -0.05002229
    0.00000000   0.00000000   1.72942293   0.00000000   0.18353273   0.00000000  -0.40871272  -0.65343389  -0.37608737   0.00000000
    0.00000000  -0.03630524   0.19483571   0.09290649   0.04985563   0.07934343
 
    0.00000000   0.00000000   0.00000000   0.00000000   0.00000000   0.15337021   0.00000000   0.00000000   0.00000000   0.00000000
    0.00000000  -0.00632887  -0.20397966   0.00000000   0.00000000  -0.00227456   0.00000000   0.00000000   0.00000000   0.00000000
    0.00000000   1.72351302   0.00000000  -0.34429031   0.00000000   0.00722669   0.00000000   0.00000000   0.00000000   0.02355532
   -0.03570311   0.00000000   0.00000000   0.00000000   0.00000000   0.00000000
 
   -0.00004341   0.00016884  -0.03401538  -0.03554094  -0.26034437   0.00000000   0.02351285   0.24023602   0.41258626   0.45126669
    0.14114018   0.00000000   0.00000000  -0.66447295   1.95124321   0.00000000   0.49015749  -0.12989391  -0.55440370   0.17850632
    0.00000000   0.00000000  -0.22514723   0.00000000   1.34271231   0.00000000   1.36270058   0.74795206   0.89840412   0.00000000
    0.00000000  -0.10682222  -0.01047539  -0.70761734  -0.56378384  -0.26362287
 
    0.00000000   0.00000000   0.00000000   0.00000000   0.00000000   0.00472949   0.00000000   0.00000000   0.00000000   0.00000000
    0.00000000   1.04346882  -0.03433247   0.00000000   0.00000000  -0.46451191   0.00000000   0.00000000   0.00000000   0.00000000
    0.00000000   0.00373493   0.00000000   0.03117378   0.00000000  -0.67472258   0.00000000   0.00000000   0.00000000   0.06800935
    0.13232192   0.00000000   0.00000000   0.00000000   0.00000000   0.00000000
 
    0.00002378   0.00028464  -0.00157307   0.00545808   0.01240332   0.00000000  -0.00846173  -0.00151572  -0.02594278  -0.01306919
    0.00987443   0.00000000   0.00000000   0.07900649  -0.12939967   0.00000000  -0.05202153   0.07620924  -0.02764614  -0.31232680
    0.00000000   0.00000000   0.04303221   0.00000000  -0.28612987   0.00000000  -0.90374207   0.93463704   0.20004785   0.00000000
    0.00000000  -0.22545996   0.14713375  -0.65996794  -0.12278228  -0.06468955
 
    0.00000000   0.00000000   0.00000000   0.00000000   0.00000000  -0.00099269   0.00000000   0.00000000   0.00000000   0.00000000
    0.00000000  -0.16857485   0.00646918   0.00000000   0.00000000   0.04825179   0.00000000   0.00000000   0.00000000   0.00000000
    0.00000000   0.02040686   0.00000000   0.11737481   0.00000000   1.25822972   0.00000000   0.00000000   0.00000000  -0.05214946
   -0.00441615   0.00000000   0.00000000   0.00000000   0.00000000   0.00000000
 
   -0.00000075   0.00020256  -0.00982780  -0.00076593  -0.04155035   0.00000000  -0.00668560   0.05077980   0.07737092   0.04382538
    0.04208517   0.00000000   0.00000000  -0.02697642   0.17993761   0.00000000  -0.08617043   0.17716315  -0.10608790  -0.27311769
    0.00000000   0.00000000   0.19218084   0.00000000   0.12914240   0.00000000   0.98477428   0.91734376   0.49791712   0.00000000
    0.00000000  -0.31608851  -0.05540566  -0.60731610  -0.13362242  -0.12474019
 
    0.00000000   0.00000000   0.00000000   0.00000000   0.00000000   0.00195174   0.00000000   0.00000000   0.00000000   0.00000000
    0.00000000  -0.00142414   0.00491995   0.00000000   0.00000000   0.06146709   0.00000000   0.00000000   0.00000000   0.00000000
    0.00000000   0.19776141   0.00000000   0.98936760   0.00000000  -0.12364569   0.00000000   0.00000000   0.00000000  -0.03911812
    0.19777378   0.00000000   0.00000000   0.00000000   0.00000000   0.00000000
 
    0.00000000   0.00000000   0.00000000   0.00000000   0.00000000   0.00000000   0.00000000   0.00000000   0.00000000   0.00000000
    0.00000000   0.00000000   0.00000000   0.00000000   0.00000000   0.00000000   0.00000000   0.00000000   0.00000000   0.00000000
    1.00000000   0.00000000   0.00000000   0.00000000   0.00000000   0.00000000   0.00000000   0.00000000   0.00000000   0.00000000
    0.00000000   0.00000000   0.00000000   0.00000000   0.00000000   0.00000000
 
   -0.00000655   0.00069210   0.00371761  -0.00801726  -0.00389684   0.00000000   0.01487480  -0.00786249  -0.02533183   0.04781601
   -0.04869971   0.00000000   0.00000000  -0.00628887  -0.07126529   0.00000000  -0.00652346   0.00677916  -0.08060602   0.11407431
    0.00000000   0.00000000   0.05312924   0.00000000  -0.25524838   0.00000000   0.02736402  -0.06650615   0.00500088   0.00000000
    0.00000000   0.09706669   0.13116730  -0.31007547   1.84212938   0.04525024
 
   -0.00002154   0.00290261  -0.02141641   0.05464219   0.00779919   0.00000000  -0.05273083   0.06975740   0.15862024  -0.16016668
    0.23504263   0.00000000   0.00000000   0.01965874   0.44485205   0.00000000   0.02319876  -0.01001030   0.56008105  -0.83096699
    0.00000000   0.00000000  -0.48046138   0.00000000   2.17382163   0.00000000  -0.10932435   0.49346479   0.48235347   0.00000000
    0.00000000  -0.05884999   0.08283118  -0.15491695  -2.49247480  -0.19253735
 
   -0.00000900   0.01261152   0.09712954  -0.10584502   0.11789245   0.00000000   0.25674959  -0.35972078  -0.82577209   0.84854135
   -1.38070235   0.00000000   0.00000000   0.33337274  -3.20158556   0.00000000  -0.79878947  -0.15036012   0.90941620   0.83821841
    0.00000000   0.00000000   0.97713788   0.00000000  -4.43822907   0.00000000  -1.51732256  -2.85502511  -2.47295318   0.00000000
    0.00000000   0.33807334  -0.38951727   2.32594756   2.86119958   0.74152942
 
   -0.00027391   0.01819493   0.00419916   1.06077821   2.62345375   0.00000000  -1.14497867  -1.05602414  -2.48081089  -2.26956006
   -2.49386441   0.00000000   0.00000000   0.74563867  -2.27101190   0.00000000  -0.53312845   0.03492267   2.04709502   1.00969985
    0.00000000   0.00000000  -0.03314683   0.00000000  -1.57293614   0.00000000  -0.71967918  -0.52274187  -0.89366471   0.00000000
    0.00000000   0.08760325  -0.94146022   0.33836389   0.57886988   0.32133631
 
   -0.00000251  -0.00025574   0.00246928  -0.00393578  -0.00102089   0.00000000   0.00796421  -0.00437370   0.00395054   0.02721300
    0.07181470   0.00000000   0.00000000   0.03465208  -0.03971763   0.00000000   0.03924351  -0.05813460  -0.07570812  -0.18884384
    0.00000000   0.00000000  -0.00293164   0.00000000  -0.06362594   0.00000000  -0.09951310  -0.19815626   0.01974779   0.00000000
    0.00000000  -0.68010685   0.89603121   1.37574417   0.27374361   0.08048486
 
   -0.00002996  -0.00190880  -0.00882913   0.01961049   0.01996937   0.00000000  -0.05509567   0.01012396  -0.03179657  -0.15039460
   -0.37600016   0.00000000   0.00000000  -0.20139453   0.18521317   0.00000000  -0.24770324   0.30569223   0.58610323   1.42261985
    0.00000000   0.00000000  -0.02527114   0.00000000   0.44419434   0.00000000   0.65815576   1.68386419   0.64987078   0.00000000
    0.00000000   0.29220176  -1.01391210  -2.27168937  -0.47069434  -0.25093938
 
   -0.00002061  -0.00536434  -0.08106276  -0.17695673  -0.75902172   0.00000000   0.16768904   0.71998206   1.30335833   1.76397674
    2.69612303   0.00000000   0.00000000  -0.02249529   2.62398530   0.00000000   0.81827373   0.26775984  -2.87865941  -1.55795010
    0.00000000   0.00000000  -0.60123907   0.00000000   2.87433337   0.00000000   0.57537394   1.38341284   1.74318266   0.00000000
    0.00000000  -0.17360712   1.43801125  -0.91189313  -1.43750840  -0.54143431
 
   -0.00000672   0.00015765  -0.00185011  -0.00472180  -0.01529379   0.00000000   0.00507807   0.01352179   0.01688825   0.02624873
    0.00183292   0.00000000   0.00000000  -0.01524765   0.02734879   0.00000000  -0.03295915   0.08200303  -0.13560004  -0.01192788
    0.00000000   0.00000000   0.04317707   0.00000000   0.07925428   0.00000000  -0.07410027   0.16763929   0.04599953   0.00000000
    0.00000000   1.05041057   0.71542113   0.17573666  -0.16838853  -0.00938458
 
    0.00000000   0.00000000   0.00000000   0.00000000   0.00000000   0.00013594   0.00000000   0.00000000   0.00000000   0.00000000
    0.00000000  -0.02696394  -0.00222735   0.00000000   0.00000000  -0.14890455   0.00000000   0.00000000   0.00000000   0.00000000
    0.00000000   0.00283704   0.00000000   0.03226805   0.00000000   0.00422521   0.00000000   0.00000000   0.00000000   1.09347236
    0.49815345   0.00000000   0.00000000   0.00000000   0.00000000   0.00000000
 
    0.00000607   0.00110872   0.02781057   0.03418079   0.17279496   0.00000000   0.01270729  -0.17762074  -0.21919264  -0.31762129
   -0.10188793   0.00000000   0.00000000   0.10239114  -0.64545219   0.00000000   0.23932974  -0.87476013   1.58108996   0.16713111
    0.00000000   0.00000000   0.14571293   0.00000000  -1.40720315   0.00000000   0.04886289  -1.35222617  -0.87984959   0.00000000
    0.00000000  -0.44911459  -0.84634287   1.14109084   0.81386916   0.30812671
 
    0.00000000   0.00000000   0.00000000   0.00000000   0.00000000  -0.00060379   0.00000000   0.00000000   0.00000000   0.00000000
    0.00000000   0.15601218   0.02112356   0.00000000   0.00000000   1.10668266   0.00000000   0.00000000   0.00000000   0.00000000
    0.00000000  -0.04452344   0.00000000  -0.30341609   0.00000000   0.11746603   0.00000000   0.00000000   0.00000000  -0.50078323
   -0.31489664   0.00000000   0.00000000   0.00000000   0.00000000   0.00000000
 
    0.00003188  -0.00012896  -0.00198521  -0.00176641  -0.00983833   0.00000000  -0.00447652   0.01053022   0.00944676   0.02340700
    0.01345223   0.00000000   0.00000000   0.01210676   0.03698384   0.00000000   0.01171532   0.01843310  -0.04768835  -0.02008096
    0.00000000   0.00000000  -0.04523902   0.00000000   0.00009357   0.00000000   0.09330340  -0.01012585   0.07215671   0.00000000
    0.00000000  -0.29987058   0.70927787  -0.87199238  -0.28569026  -0.05677225
 
    0.00000000   0.00000000   0.00000000   0.00000000   0.00000000   0.00005964   0.00000000   0.00000000   0.00000000   0.00000000
    0.00000000   0.00490350  -0.00138717   0.00000000   0.00000000  -0.00031736   0.00000000   0.00000000   0.00000000   0.00000000
    0.00000000  -0.00531093   0.00000000  -0.04253607   0.00000000  -0.01257525   0.00000000   0.00000000   0.00000000  -0.40058788
    0.93283166   0.00000000   0.00000000   0.00000000   0.00000000   0.00000000

 SYMMETRY BLOCK 4.1
 
    0.93230907  -0.05201460  -1.07188972  -0.51944480   0.00000000   0.07665721   0.27867664   0.72376226  -0.00736111   0.33581715
    0.00000000   0.04683917   0.00000000  -0.02187826   0.22661504  -0.36050569   0.00000000  -0.05886490  -0.16303248  -0.00588882
 
    0.00957594  -0.00559842   1.28924328   0.10192282   0.00000000  -0.02575975  -0.01741499  -1.51989416   0.81221639   0.13901551
    0.00000000  -0.00386205   0.00000000   0.13580628   0.25726081   1.17056753   0.00000000  -0.08339876  -0.13721614  -0.32911190
 
    0.15431981  -0.00741511   0.01091867  -0.01506723   0.00000000  -0.01550189  -0.00451026   1.31914554  -0.48930315  -0.05725475
    0.00000000   0.00125729   0.00000000  -0.04208337  -0.08854053  -1.97327908   0.00000000   0.06232940   0.06422050   0.19753425
 
    0.02839766  -0.00202917   0.16230150   0.00676652   0.00000000  -0.00561300   0.00024198   0.11875388  -0.02959443   0.00286255
    0.00000000  -0.00205825   0.00000000  -0.02716178  -0.03978549   1.61406659   0.00000000  -0.04108222  -0.02086916  -0.07682989
 
    0.01492393   1.17026580   0.02417315  -0.90582417   0.00000000  -0.76267614   0.94631729   0.04572881   0.19387620   0.48551014
    0.00000000   0.75439761   0.00000000  -0.19172252   0.22752865   0.01862491   0.00000000  -0.11738604  -0.23347247   0.01733431
 
    0.00230961  -0.41275192  -0.01847873   0.18133037   0.00000000   1.42567790  -0.83739054   0.22593591   0.60924292   0.13859707
    0.00000000  -1.76773570   0.00000000   0.59595807   0.70727326   0.06562324   0.00000000  -0.04193623  -0.12852340  -0.50815363
 
   -0.00019767   0.14230882   0.00741907  -0.05119224   0.00000000  -0.16603960   0.09607821  -0.02593102  -0.00529775  -0.10069862
    0.00000000   1.69290197   0.00000000  -0.39906754  -0.42172401  -0.02977839   0.00000000   0.01817960   0.00230893   0.13492509
 
    0.01503638   0.00307830  -0.02349734   0.00195636   0.00000000   0.48479697   1.19801789   0.25024523   0.80082634   0.36235396
    0.00000000   0.00250210   0.00000000  -0.38794707   1.00653258   0.06995939   0.00000000  -0.16687573  -0.24168615  -0.31102731
 
    0.00000000   0.00000000   0.00000000   0.00000000   1.09966242   0.00000000   0.00000000   0.00000000   0.00000000   0.00000000
   -0.00389554   0.00000000  -0.63580918   0.00000000   0.00000000   0.00000000  -0.02730426   0.00000000   0.00000000   0.00000000
 
   -0.00086039   0.00095318   0.00625124  -0.00267879   0.00000000  -0.07043052  -0.16636389  -0.03025283  -0.11734981   0.04982197
    0.00000000   0.10730135   0.00000000   1.09992626  -0.64929031  -0.00652629   0.00000000   0.14210837  -0.02548358  -0.18219360
 
    0.00000000   0.00000000   0.00000000   0.00000000  -0.17756067   0.00000000   0.00000000   0.00000000   0.00000000   0.00000000
    0.00434776   0.00000000   1.25778647   0.00000000   0.00000000   0.00000000   0.01189118   0.00000000   0.00000000   0.00000000
 
    0.00000000   0.00000000   0.00000000   0.00000000   0.00130394   0.00000000   0.00000000   0.00000000   0.00000000   0.00000000
    0.99930933   0.00000000  -0.00305405   0.00000000   0.00000000   0.00000000  -0.04918349   0.00000000   0.00000000   0.00000000
 
    0.00325908   0.00560568  -0.00789338  -0.02215460   0.00000000  -0.00877679   0.00508346   0.02381615  -0.08288034   0.12071252
    0.00000000   0.26106740   0.00000000   0.43471538   1.06964051   0.06013579   0.00000000   0.12529145  -0.13067314  -0.40357768
 
    0.00224769   0.01691490  -0.00546867   0.08183405   0.00000000  -0.02634891  -0.01178837   0.02289938   0.07983507  -0.25873668
    0.00000000  -0.00649788   0.00000000   0.03880527   0.04711898  -0.01559687   0.00000000  -0.31115864   1.27246907  -0.91854725
 
   -0.00601305  -0.06531157   0.02162131  -0.37513468   0.00000000   0.13528093   0.07613157  -0.11532325  -0.46241775   1.62278281
    0.00000000   0.07915165   0.00000000  -0.37218496  -0.32834882  -0.02552365   0.00000000   0.17790546  -1.16956098   0.90649691
 
    0.00830309   0.17083597  -0.01402078   1.50684360   0.00000000  -0.27976054  -0.84767530  -0.17345639  -0.47258564  -1.50292849
    0.00000000  -0.15484599   0.00000000   0.13539959  -0.66475442  -0.05211601   0.00000000   0.10052378   0.80583775   0.02381676
 
   -0.00250561  -0.00664841   0.00652157   0.00166500   0.00000000   0.02273769  -0.00046303  -0.04557340  -0.13772041  -0.07825874
    0.00000000  -0.01967412   0.00000000  -0.07941224  -0.05872891   0.02270723   0.00000000   1.11092261   0.50043000   0.27960091
 
    0.01199743   0.02589727  -0.03962555  -0.02093595   0.00000000  -0.12024019   0.07505771   0.37347819   1.27241056   0.73407423
    0.00000000   0.03064397   0.00000000   0.38617248   0.81796015   0.09321923   0.00000000  -0.56901816  -0.53252325  -0.60513164
 
   -0.00002473   0.00354798   0.00020290   0.00327286   0.00000000  -0.01202939  -0.01299125  -0.00220713  -0.00003086  -0.00462119
    0.00000000   0.02391892   0.00000000   0.06280845  -0.01420475   0.01601129   0.00000000  -0.35362123   0.50623468   0.89502326
 
    0.00000000   0.00000000   0.00000000   0.00000000   0.00070317   0.00000000   0.00000000   0.00000000   0.00000000   0.00000000
    0.01680327   0.00000000  -0.00173110   0.00000000   0.00000000   0.00000000   1.00060123   0.00000000   0.00000000   0.00000000


 **********************************************************************************************************************************
 DATASETS  * FILE   NREC   LENGTH (MB)   RECORD NAMES
              1      20      114.02       500      610      700      900      950      970     1000      129      960     1100   
                                          VAR    BASINP    GEOM    SYMINP    ZMAT    AOBASIS   BASIS     P2S    ABASIS      S 
                                         1400     1410     1200     1210     1080     1600     1650     1300     1700     1380   
                                           T        V       H0       H01     AOSYM     SMH    MOLCAS    ERIS     OPER     JKOP   

              2       6        8.35       700     1000      520     2100     2140     6000   
                                         GEOM     BASIS   MCVARS     RHF     MCSCF    MRCI   

 PROGRAMS   *        TOTAL    MATROP    MATROP    MATROP      MRCI     MULTI        HF       INT
 CPU TIMES  *        13.48      0.00      0.00      0.00      7.49      1.21      0.73      3.93
 REAL TIME  *        14.59 SEC
 DISK USED  *       272.15 MB      
 **********************************************************************************************************************************

        MRCI            MULTI           HF-SCF  
   -459.88568279   -459.64488413   -460.11242694
 **********************************************************************************************************************************
 Variable memory released
