Title Card Required                                                     
SP        RHF                                                         CC-pVTZ             
Number of atoms                            I               18
Info1-9                                    I   N=           9
          44          44           0           0           0         110
           1           1           2
Charge                                     I                0
Multiplicity                               I                1
Number of electrons                        I               68
Number of alpha electrons                  I               34
Number of beta electrons                   I               34
Number of basis functions                  I              412
Number of independent functions            I              412
Number of point charges in /Mol/           I                0
Number of translation vectors              I                0
Atomic numbers                             I   N=          18
           6           6           6           6           6           6
           1           1           1           6           6           1
           1           6           6           1           1           1
Nuclear charges                            R   N=          18
  6.00000000E+00  6.00000000E+00  6.00000000E+00  6.00000000E+00  6.00000000E+00
  6.00000000E+00  1.00000000E+00  1.00000000E+00  1.00000000E+00  6.00000000E+00
  6.00000000E+00  1.00000000E+00  1.00000000E+00  6.00000000E+00  6.00000000E+00
  1.00000000E+00  1.00000000E+00  1.00000000E+00
Current cartesian coordinates              R   N=          54
  4.58467190E+00 -1.33946607E+00  1.13895764E-04  2.34552721E+00 -2.64950331E+00
 -2.49567401E-04 -1.11868638E-03 -1.34016754E+00 -5.01432175E-05  1.87135192E-03
  1.34110210E+00 -1.69113820E-04  2.34834096E+00  2.64962212E+00 -9.31611710E-05
  4.58682181E+00  1.33643623E+00  2.50736615E-04 -2.33015306E+00 -4.72790512E+00
 -4.07147984E-04  6.40234713E+00 -2.34793498E+00  1.11841043E-04  2.32546074E+00
 -4.72873279E+00 -2.69290397E-04 -2.34825779E+00 -2.64870711E+00  7.98561320E-05
 -2.34572203E+00  2.64901877E+00 -1.87349047E-04  2.33011459E+00  4.72863516E+00
  2.01046507E-04  6.40557639E+00  2.34279182E+00  3.40719028E-04 -4.58502949E+00
  1.33903507E+00 -3.49111972E-05 -4.58687274E+00 -1.33724181E+00  2.53366257E-04
 -2.32640769E+00  4.72828769E+00 -2.28115635E-04 -6.40262682E+00  2.34751662E+00
  4.54698398E-04 -6.40570617E+00 -2.34342900E+00  3.14595555E-04
Force Field                                I                0
Int Atom Types                             I   N=          18
           0           0           0           0           0           0
           0           0           0           0           0           0
           0           0           0           0           0           0
MM charges                                 R   N=          18
  0.00000000E+00  0.00000000E+00  0.00000000E+00  0.00000000E+00  0.00000000E+00
  0.00000000E+00  0.00000000E+00  0.00000000E+00  0.00000000E+00  0.00000000E+00
  0.00000000E+00  0.00000000E+00  0.00000000E+00  0.00000000E+00  0.00000000E+00
  0.00000000E+00  0.00000000E+00  0.00000000E+00
Integer atomic weights                     I   N=          18
          12          12          12          12          12          12
           1           1           1          12          12           1
           1          12          12           1           1           1
Real atomic weights                        R   N=          18
  1.20000000E+01  1.20000000E+01  1.20000000E+01  1.20000000E+01  1.20000000E+01
  1.20000000E+01  1.00782504E+00  1.00782504E+00  1.00782504E+00  1.20000000E+01
  1.20000000E+01  1.00782504E+00  1.00782504E+00  1.20000000E+01  1.20000000E+01
  1.00782504E+00  1.00782504E+00  1.00782504E+00
Atom fragment info                         I   N=          18
           0           0           0           0           0           0
           0           0           0           0           0           0
           0           0           0           0           0           0
Atom residue num                           I   N=          18
           0           0           0           0           0           0
           0           0           0           0           0           0
           0           0           0           0           0           0
Nuclear spins                              I   N=          18
           0           0           0           0           0           0
           1           1           1           0           0           1
           1           0           0           1           1           1
Nuclear ZEff                               R   N=          18
 -3.60000000E+00 -3.60000000E+00 -3.60000000E+00 -3.60000000E+00 -3.60000000E+00
 -3.60000000E+00 -1.00000000E+00 -1.00000000E+00 -1.00000000E+00 -3.60000000E+00
 -3.60000000E+00 -1.00000000E+00 -1.00000000E+00 -3.60000000E+00 -3.60000000E+00
 -1.00000000E+00 -1.00000000E+00 -1.00000000E+00
Nuclear ZNuc                               R   N=          18
  6.00000000E+00  6.00000000E+00  6.00000000E+00  6.00000000E+00  6.00000000E+00
  6.00000000E+00  1.00000000E+00  1.00000000E+00  1.00000000E+00  6.00000000E+00
  6.00000000E+00  1.00000000E+00  1.00000000E+00  6.00000000E+00  6.00000000E+00
  1.00000000E+00  1.00000000E+00  1.00000000E+00
Nuclear QMom                               R   N=          18
  0.00000000E+00  0.00000000E+00  0.00000000E+00  0.00000000E+00  0.00000000E+00
  0.00000000E+00  0.00000000E+00  0.00000000E+00  0.00000000E+00  0.00000000E+00
  0.00000000E+00  0.00000000E+00  0.00000000E+00  0.00000000E+00  0.00000000E+00
  0.00000000E+00  0.00000000E+00  0.00000000E+00
Nuclear GFac                               R   N=          18
  0.00000000E+00  0.00000000E+00  0.00000000E+00  0.00000000E+00  0.00000000E+00
  0.00000000E+00  2.79284600E+00  2.79284600E+00  2.79284600E+00  0.00000000E+00
  0.00000000E+00  2.79284600E+00  2.79284600E+00  0.00000000E+00  0.00000000E+00
  2.79284600E+00  2.79284600E+00  2.79284600E+00
MicOpt                                     I   N=          18
          -1          -1          -1          -1          -1          -1
          -1          -1          -1          -1          -1          -1
          -1          -1          -1          -1          -1          -1
SymInf integers                            I   N=          26
           1           1           1           1           1           0
           0           0           0           0           0           0
           0           0           0           0           0           0
           0           0           0           0           0           0
           0           0
RotTr to input orientation                 R   N=          12
 -8.63128985E-01 -5.04983518E-01  3.57380485E-05 -5.04983500E-01  8.63128970E-01
  2.16360638E-04 -1.40105101E-04  1.68700014E-04 -9.99999976E-01 -6.24398543E+00
  2.37815914E+00  7.36854241E-04
Number of contracted shells                I              148
Number of primitive shells                 I              294
Pure/Cartesian d shells                    I                0
Pure/Cartesian f shells                    I                0
Highest angular momentum                   I                3
Largest degree of contraction              I                7
Shell types                                I   N=         148
           0           0           0           0           1           1
           1          -2          -2          -3           0           0
           0           0           1           1           1          -2
          -2          -3           0           0           0           0
           1           1           1          -2          -2          -3
           0           0           0           0           1           1
           1          -2          -2          -3           0           0
           0           0           1           1           1          -2
          -2          -3           0           0           0           0
           1           1           1          -2          -2          -3
           0           0           0           1           1          -2
           0           0           0           1           1          -2
           0           0           0           1           1          -2
           0           0           0           0           1           1
           1          -2          -2          -3           0           0
           0           0           1           1           1          -2
          -2          -3           0           0           0           1
           1          -2           0           0           0           1
           1          -2           0           0           0           0
           1           1           1          -2          -2          -3
           0           0           0           0           1           1
           1          -2          -2          -3           0           0
           0           1           1          -2           0           0
           0           1           1          -2           0           0
           0           1           1          -2
Number of primitives per shell             I   N=         148
           7           6           1           1           3           1
           1           1           1           1           7           6
           1           1           3           1           1           1
           1           1           7           6           1           1
           3           1           1           1           1           1
           7           6           1           1           3           1
           1           1           1           1           7           6
           1           1           3           1           1           1
           1           1           7           6           1           1
           3           1           1           1           1           1
           3           1           1           1           1           1
           3           1           1           1           1           1
           3           1           1           1           1           1
           7           6           1           1           3           1
           1           1           1           1           7           6
           1           1           3           1           1           1
           1           1           3           1           1           1
           1           1           3           1           1           1
           1           1           7           6           1           1
           3           1           1           1           1           1
           7           6           1           1           3           1
           1           1           1           1           3           1
           1           1           1           1           3           1
           1           1           1           1           3           1
           1           1           1           1
Shell to atom map                          I   N=         148
           1           1           1           1           1           1
           1           1           1           1           2           2
           2           2           2           2           2           2
           2           2           3           3           3           3
           3           3           3           3           3           3
           4           4           4           4           4           4
           4           4           4           4           5           5
           5           5           5           5           5           5
           5           5           6           6           6           6
           6           6           6           6           6           6
           7           7           7           7           7           7
           8           8           8           8           8           8
           9           9           9           9           9           9
          10          10          10          10          10          10
          10          10          10          10          11          11
          11          11          11          11          11          11
          11          11          12          12          12          12
          12          12          13          13          13          13
          13          13          14          14          14          14
          14          14          14          14          14          14
          15          15          15          15          15          15
          15          15          15          15          16          16
          16          16          16          16          17          17
          17          17          17          17          18          18
          18          18          18          18
Primitive exponents                        R   N=         294
  8.23600000E+03  1.23500000E+03  2.80800000E+02  7.92700000E+01  2.55900000E+01
  8.99700000E+00  3.31900000E+00  2.80800000E+02  7.92700000E+01  2.55900000E+01
  8.99700000E+00  3.31900000E+00  3.64300000E-01  9.05900000E-01  1.28500000E-01
  1.87100000E+01  4.13300000E+00  1.20000000E+00  3.82700000E-01  1.20900000E-01
  1.09700000E+00  3.18000000E-01  7.61000000E-01  8.23600000E+03  1.23500000E+03
  2.80800000E+02  7.92700000E+01  2.55900000E+01  8.99700000E+00  3.31900000E+00
  2.80800000E+02  7.92700000E+01  2.55900000E+01  8.99700000E+00  3.31900000E+00
  3.64300000E-01  9.05900000E-01  1.28500000E-01  1.87100000E+01  4.13300000E+00
  1.20000000E+00  3.82700000E-01  1.20900000E-01  1.09700000E+00  3.18000000E-01
  7.61000000E-01  8.23600000E+03  1.23500000E+03  2.80800000E+02  7.92700000E+01
  2.55900000E+01  8.99700000E+00  3.31900000E+00  2.80800000E+02  7.92700000E+01
  2.55900000E+01  8.99700000E+00  3.31900000E+00  3.64300000E-01  9.05900000E-01
  1.28500000E-01  1.87100000E+01  4.13300000E+00  1.20000000E+00  3.82700000E-01
  1.20900000E-01  1.09700000E+00  3.18000000E-01  7.61000000E-01  8.23600000E+03
  1.23500000E+03  2.80800000E+02  7.92700000E+01  2.55900000E+01  8.99700000E+00
  3.31900000E+00  2.80800000E+02  7.92700000E+01  2.55900000E+01  8.99700000E+00
  3.31900000E+00  3.64300000E-01  9.05900000E-01  1.28500000E-01  1.87100000E+01
  4.13300000E+00  1.20000000E+00  3.82700000E-01  1.20900000E-01  1.09700000E+00
  3.18000000E-01  7.61000000E-01  8.23600000E+03  1.23500000E+03  2.80800000E+02
  7.92700000E+01  2.55900000E+01  8.99700000E+00  3.31900000E+00  2.80800000E+02
  7.92700000E+01  2.55900000E+01  8.99700000E+00  3.31900000E+00  3.64300000E-01
  9.05900000E-01  1.28500000E-01  1.87100000E+01  4.13300000E+00  1.20000000E+00
  3.82700000E-01  1.20900000E-01  1.09700000E+00  3.18000000E-01  7.61000000E-01
  8.23600000E+03  1.23500000E+03  2.80800000E+02  7.92700000E+01  2.55900000E+01
  8.99700000E+00  3.31900000E+00  2.80800000E+02  7.92700000E+01  2.55900000E+01
  8.99700000E+00  3.31900000E+00  3.64300000E-01  9.05900000E-01  1.28500000E-01
  1.87100000E+01  4.13300000E+00  1.20000000E+00  3.82700000E-01  1.20900000E-01
  1.09700000E+00  3.18000000E-01  7.61000000E-01  3.38700000E+01  5.09500000E+00
  1.15900000E+00  3.25800000E-01  1.02700000E-01  1.40700000E+00  3.88000000E-01
  1.05700000E+00  3.38700000E+01  5.09500000E+00  1.15900000E+00  3.25800000E-01
  1.02700000E-01  1.40700000E+00  3.88000000E-01  1.05700000E+00  3.38700000E+01
  5.09500000E+00  1.15900000E+00  3.25800000E-01  1.02700000E-01  1.40700000E+00
  3.88000000E-01  1.05700000E+00  8.23600000E+03  1.23500000E+03  2.80800000E+02
  7.92700000E+01  2.55900000E+01  8.99700000E+00  3.31900000E+00  2.80800000E+02
  7.92700000E+01  2.55900000E+01  8.99700000E+00  3.31900000E+00  3.64300000E-01
  9.05900000E-01  1.28500000E-01  1.87100000E+01  4.13300000E+00  1.20000000E+00
  3.82700000E-01  1.20900000E-01  1.09700000E+00  3.18000000E-01  7.61000000E-01
  8.23600000E+03  1.23500000E+03  2.80800000E+02  7.92700000E+01  2.55900000E+01
  8.99700000E+00  3.31900000E+00  2.80800000E+02  7.92700000E+01  2.55900000E+01
  8.99700000E+00  3.31900000E+00  3.64300000E-01  9.05900000E-01  1.28500000E-01
  1.87100000E+01  4.13300000E+00  1.20000000E+00  3.82700000E-01  1.20900000E-01
  1.09700000E+00  3.18000000E-01  7.61000000E-01  3.38700000E+01  5.09500000E+00
  1.15900000E+00  3.25800000E-01  1.02700000E-01  1.40700000E+00  3.88000000E-01
  1.05700000E+00  3.38700000E+01  5.09500000E+00  1.15900000E+00  3.25800000E-01
  1.02700000E-01  1.40700000E+00  3.88000000E-01  1.05700000E+00  8.23600000E+03
  1.23500000E+03  2.80800000E+02  7.92700000E+01  2.55900000E+01  8.99700000E+00
  3.31900000E+00  2.80800000E+02  7.92700000E+01  2.55900000E+01  8.99700000E+00
  3.31900000E+00  3.64300000E-01  9.05900000E-01  1.28500000E-01  1.87100000E+01
  4.13300000E+00  1.20000000E+00  3.82700000E-01  1.20900000E-01  1.09700000E+00
  3.18000000E-01  7.61000000E-01  8.23600000E+03  1.23500000E+03  2.80800000E+02
  7.92700000E+01  2.55900000E+01  8.99700000E+00  3.31900000E+00  2.80800000E+02
  7.92700000E+01  2.55900000E+01  8.99700000E+00  3.31900000E+00  3.64300000E-01
  9.05900000E-01  1.28500000E-01  1.87100000E+01  4.13300000E+00  1.20000000E+00
  3.82700000E-01  1.20900000E-01  1.09700000E+00  3.18000000E-01  7.61000000E-01
  3.38700000E+01  5.09500000E+00  1.15900000E+00  3.25800000E-01  1.02700000E-01
  1.40700000E+00  3.88000000E-01  1.05700000E+00  3.38700000E+01  5.09500000E+00
  1.15900000E+00  3.25800000E-01  1.02700000E-01  1.40700000E+00  3.88000000E-01
  1.05700000E+00  3.38700000E+01  5.09500000E+00  1.15900000E+00  3.25800000E-01
  1.02700000E-01  1.40700000E+00  3.88000000E-01  1.05700000E+00
Contraction coefficients                   R   N=         294
  5.41978320E-04  4.19287382E-03  2.15221621E-02  8.35343220E-02  2.39582846E-01
  4.42852842E-01  3.51799562E-01 -5.94922494E-05 -1.14815831E-03 -1.00191374E-02
 -6.12194923E-02 -1.73269854E-01  1.07291519E+00  1.00000000E+00  1.00000000E+00
  3.94263872E-02  2.44088985E-01  8.15492009E-01  1.00000000E+00  1.00000000E+00
  1.00000000E+00  1.00000000E+00  1.00000000E+00  5.41978320E-04  4.19287382E-03
  2.15221621E-02  8.35343220E-02  2.39582846E-01  4.42852842E-01  3.51799562E-01
 -5.94922494E-05 -1.14815831E-03 -1.00191374E-02 -6.12194923E-02 -1.73269854E-01
  1.07291519E+00  1.00000000E+00  1.00000000E+00  3.94263872E-02  2.44088985E-01
  8.15492009E-01  1.00000000E+00  1.00000000E+00  1.00000000E+00  1.00000000E+00
  1.00000000E+00  5.41978320E-04  4.19287382E-03  2.15221621E-02  8.35343220E-02
  2.39582846E-01  4.42852842E-01  3.51799562E-01 -5.94922494E-05 -1.14815831E-03
 -1.00191374E-02 -6.12194923E-02 -1.73269854E-01  1.07291519E+00  1.00000000E+00
  1.00000000E+00  3.94263872E-02  2.44088985E-01  8.15492009E-01  1.00000000E+00
  1.00000000E+00  1.00000000E+00  1.00000000E+00  1.00000000E+00  5.41978320E-04
  4.19287382E-03  2.15221621E-02  8.35343220E-02  2.39582846E-01  4.42852842E-01
  3.51799562E-01 -5.94922494E-05 -1.14815831E-03 -1.00191374E-02 -6.12194923E-02
 -1.73269854E-01  1.07291519E+00  1.00000000E+00  1.00000000E+00  3.94263872E-02
  2.44088985E-01  8.15492009E-01  1.00000000E+00  1.00000000E+00  1.00000000E+00
  1.00000000E+00  1.00000000E+00  5.41978320E-04  4.19287382E-03  2.15221621E-02
  8.35343220E-02  2.39582846E-01  4.42852842E-01  3.51799562E-01 -5.94922494E-05
 -1.14815831E-03 -1.00191374E-02 -6.12194923E-02 -1.73269854E-01  1.07291519E+00
  1.00000000E+00  1.00000000E+00  3.94263872E-02  2.44088985E-01  8.15492009E-01
  1.00000000E+00  1.00000000E+00  1.00000000E+00  1.00000000E+00  1.00000000E+00
  5.41978320E-04  4.19287382E-03  2.15221621E-02  8.35343220E-02  2.39582846E-01
  4.42852842E-01  3.51799562E-01 -5.94922494E-05 -1.14815831E-03 -1.00191374E-02
 -6.12194923E-02 -1.73269854E-01  1.07291519E+00  1.00000000E+00  1.00000000E+00
  3.94263872E-02  2.44088985E-01  8.15492009E-01  1.00000000E+00  1.00000000E+00
  1.00000000E+00  1.00000000E+00  1.00000000E+00  2.54948632E-02  1.90362766E-01
  8.52162022E-01  1.00000000E+00  1.00000000E+00  1.00000000E+00  1.00000000E+00
  1.00000000E+00  2.54948632E-02  1.90362766E-01  8.52162022E-01  1.00000000E+00
  1.00000000E+00  1.00000000E+00  1.00000000E+00  1.00000000E+00  2.54948632E-02
  1.90362766E-01  8.52162022E-01  1.00000000E+00  1.00000000E+00  1.00000000E+00
  1.00000000E+00  1.00000000E+00  5.41978320E-04  4.19287382E-03  2.15221621E-02
  8.35343220E-02  2.39582846E-01  4.42852842E-01  3.51799562E-01 -5.94922494E-05
 -1.14815831E-03 -1.00191374E-02 -6.12194923E-02 -1.73269854E-01  1.07291519E+00
  1.00000000E+00  1.00000000E+00  3.94263872E-02  2.44088985E-01  8.15492009E-01
  1.00000000E+00  1.00000000E+00  1.00000000E+00  1.00000000E+00  1.00000000E+00
  5.41978320E-04  4.19287382E-03  2.15221621E-02  8.35343220E-02  2.39582846E-01
  4.42852842E-01  3.51799562E-01 -5.94922494E-05 -1.14815831E-03 -1.00191374E-02
 -6.12194923E-02 -1.73269854E-01  1.07291519E+00  1.00000000E+00  1.00000000E+00
  3.94263872E-02  2.44088985E-01  8.15492009E-01  1.00000000E+00  1.00000000E+00
  1.00000000E+00  1.00000000E+00  1.00000000E+00  2.54948632E-02  1.90362766E-01
  8.52162022E-01  1.00000000E+00  1.00000000E+00  1.00000000E+00  1.00000000E+00
  1.00000000E+00  2.54948632E-02  1.90362766E-01  8.52162022E-01  1.00000000E+00
  1.00000000E+00  1.00000000E+00  1.00000000E+00  1.00000000E+00  5.41978320E-04
  4.19287382E-03  2.15221621E-02  8.35343220E-02  2.39582846E-01  4.42852842E-01
  3.51799562E-01 -5.94922494E-05 -1.14815831E-03 -1.00191374E-02 -6.12194923E-02
 -1.73269854E-01  1.07291519E+00  1.00000000E+00  1.00000000E+00  3.94263872E-02
  2.44088985E-01  8.15492009E-01  1.00000000E+00  1.00000000E+00  1.00000000E+00
  1.00000000E+00  1.00000000E+00  5.41978320E-04  4.19287382E-03  2.15221621E-02
  8.35343220E-02  2.39582846E-01  4.42852842E-01  3.51799562E-01 -5.94922494E-05
 -1.14815831E-03 -1.00191374E-02 -6.12194923E-02 -1.73269854E-01  1.07291519E+00
  1.00000000E+00  1.00000000E+00  3.94263872E-02  2.44088985E-01  8.15492009E-01
  1.00000000E+00  1.00000000E+00  1.00000000E+00  1.00000000E+00  1.00000000E+00
  2.54948632E-02  1.90362766E-01  8.52162022E-01  1.00000000E+00  1.00000000E+00
  1.00000000E+00  1.00000000E+00  1.00000000E+00  2.54948632E-02  1.90362766E-01
  8.52162022E-01  1.00000000E+00  1.00000000E+00  1.00000000E+00  1.00000000E+00
  1.00000000E+00  2.54948632E-02  1.90362766E-01  8.52162022E-01  1.00000000E+00
  1.00000000E+00  1.00000000E+00  1.00000000E+00  1.00000000E+00
Coordinates of each shell                  R   N=         444
  4.58467190E+00 -1.33946607E+00  1.13895764E-04  4.58467190E+00 -1.33946607E+00
  1.13895764E-04  4.58467190E+00 -1.33946607E+00  1.13895764E-04  4.58467190E+00
 -1.33946607E+00  1.13895764E-04  4.58467190E+00 -1.33946607E+00  1.13895764E-04
  4.58467190E+00 -1.33946607E+00  1.13895764E-04  4.58467190E+00 -1.33946607E+00
  1.13895764E-04  4.58467190E+00 -1.33946607E+00  1.13895764E-04  4.58467190E+00
 -1.33946607E+00  1.13895764E-04  4.58467190E+00 -1.33946607E+00  1.13895764E-04
  2.34552721E+00 -2.64950331E+00 -2.49567401E-04  2.34552721E+00 -2.64950331E+00
 -2.49567401E-04  2.34552721E+00 -2.64950331E+00 -2.49567401E-04  2.34552721E+00
 -2.64950331E+00 -2.49567401E-04  2.34552721E+00 -2.64950331E+00 -2.49567401E-04
  2.34552721E+00 -2.64950331E+00 -2.49567401E-04  2.34552721E+00 -2.64950331E+00
 -2.49567401E-04  2.34552721E+00 -2.64950331E+00 -2.49567401E-04  2.34552721E+00
 -2.64950331E+00 -2.49567401E-04  2.34552721E+00 -2.64950331E+00 -2.49567401E-04
 -1.11868638E-03 -1.34016754E+00 -5.01432175E-05 -1.11868638E-03 -1.34016754E+00
 -5.01432175E-05 -1.11868638E-03 -1.34016754E+00 -5.01432175E-05 -1.11868638E-03
 -1.34016754E+00 -5.01432175E-05 -1.11868638E-03 -1.34016754E+00 -5.01432175E-05
 -1.11868638E-03 -1.34016754E+00 -5.01432175E-05 -1.11868638E-03 -1.34016754E+00
 -5.01432175E-05 -1.11868638E-03 -1.34016754E+00 -5.01432175E-05 -1.11868638E-03
 -1.34016754E+00 -5.01432175E-05 -1.11868638E-03 -1.34016754E+00 -5.01432175E-05
  1.87135192E-03  1.34110210E+00 -1.69113820E-04  1.87135192E-03  1.34110210E+00
 -1.69113820E-04  1.87135192E-03  1.34110210E+00 -1.69113820E-04  1.87135192E-03
  1.34110210E+00 -1.69113820E-04  1.87135192E-03  1.34110210E+00 -1.69113820E-04
  1.87135192E-03  1.34110210E+00 -1.69113820E-04  1.87135192E-03  1.34110210E+00
 -1.69113820E-04  1.87135192E-03  1.34110210E+00 -1.69113820E-04  1.87135192E-03
  1.34110210E+00 -1.69113820E-04  1.87135192E-03  1.34110210E+00 -1.69113820E-04
  2.34834096E+00  2.64962212E+00 -9.31611710E-05  2.34834096E+00  2.64962212E+00
 -9.31611710E-05  2.34834096E+00  2.64962212E+00 -9.31611710E-05  2.34834096E+00
  2.64962212E+00 -9.31611710E-05  2.34834096E+00  2.64962212E+00 -9.31611710E-05
  2.34834096E+00  2.64962212E+00 -9.31611710E-05  2.34834096E+00  2.64962212E+00
 -9.31611710E-05  2.34834096E+00  2.64962212E+00 -9.31611710E-05  2.34834096E+00
  2.64962212E+00 -9.31611710E-05  2.34834096E+00  2.64962212E+00 -9.31611710E-05
  4.58682181E+00  1.33643623E+00  2.50736615E-04  4.58682181E+00  1.33643623E+00
  2.50736615E-04  4.58682181E+00  1.33643623E+00  2.50736615E-04  4.58682181E+00
  1.33643623E+00  2.50736615E-04  4.58682181E+00  1.33643623E+00  2.50736615E-04
  4.58682181E+00  1.33643623E+00  2.50736615E-04  4.58682181E+00  1.33643623E+00
  2.50736615E-04  4.58682181E+00  1.33643623E+00  2.50736615E-04  4.58682181E+00
  1.33643623E+00  2.50736615E-04  4.58682181E+00  1.33643623E+00  2.50736615E-04
 -2.33015306E+00 -4.72790512E+00 -4.07147984E-04 -2.33015306E+00 -4.72790512E+00
 -4.07147984E-04 -2.33015306E+00 -4.72790512E+00 -4.07147984E-04 -2.33015306E+00
 -4.72790512E+00 -4.07147984E-04 -2.33015306E+00 -4.72790512E+00 -4.07147984E-04
 -2.33015306E+00 -4.72790512E+00 -4.07147984E-04  6.40234713E+00 -2.34793498E+00
  1.11841043E-04  6.40234713E+00 -2.34793498E+00  1.11841043E-04  6.40234713E+00
 -2.34793498E+00  1.11841043E-04  6.40234713E+00 -2.34793498E+00  1.11841043E-04
  6.40234713E+00 -2.34793498E+00  1.11841043E-04  6.40234713E+00 -2.34793498E+00
  1.11841043E-04  2.32546074E+00 -4.72873279E+00 -2.69290397E-04  2.32546074E+00
 -4.72873279E+00 -2.69290397E-04  2.32546074E+00 -4.72873279E+00 -2.69290397E-04
  2.32546074E+00 -4.72873279E+00 -2.69290397E-04  2.32546074E+00 -4.72873279E+00
 -2.69290397E-04  2.32546074E+00 -4.72873279E+00 -2.69290397E-04 -2.34825779E+00
 -2.64870711E+00  7.98561320E-05 -2.34825779E+00 -2.64870711E+00  7.98561320E-05
 -2.34825779E+00 -2.64870711E+00  7.98561320E-05 -2.34825779E+00 -2.64870711E+00
  7.98561320E-05 -2.34825779E+00 -2.64870711E+00  7.98561320E-05 -2.34825779E+00
 -2.64870711E+00  7.98561320E-05 -2.34825779E+00 -2.64870711E+00  7.98561320E-05
 -2.34825779E+00 -2.64870711E+00  7.98561320E-05 -2.34825779E+00 -2.64870711E+00
  7.98561320E-05 -2.34825779E+00 -2.64870711E+00  7.98561320E-05 -2.34572203E+00
  2.64901877E+00 -1.87349047E-04 -2.34572203E+00  2.64901877E+00 -1.87349047E-04
 -2.34572203E+00  2.64901877E+00 -1.87349047E-04 -2.34572203E+00  2.64901877E+00
 -1.87349047E-04 -2.34572203E+00  2.64901877E+00 -1.87349047E-04 -2.34572203E+00
  2.64901877E+00 -1.87349047E-04 -2.34572203E+00  2.64901877E+00 -1.87349047E-04
 -2.34572203E+00  2.64901877E+00 -1.87349047E-04 -2.34572203E+00  2.64901877E+00
 -1.87349047E-04 -2.34572203E+00  2.64901877E+00 -1.87349047E-04  2.33011459E+00
  4.72863516E+00  2.01046507E-04  2.33011459E+00  4.72863516E+00  2.01046507E-04
  2.33011459E+00  4.72863516E+00  2.01046507E-04  2.33011459E+00  4.72863516E+00
  2.01046507E-04  2.33011459E+00  4.72863516E+00  2.01046507E-04  2.33011459E+00
  4.72863516E+00  2.01046507E-04  6.40557639E+00  2.34279182E+00  3.40719028E-04
  6.40557639E+00  2.34279182E+00  3.40719028E-04  6.40557639E+00  2.34279182E+00
  3.40719028E-04  6.40557639E+00  2.34279182E+00  3.40719028E-04  6.40557639E+00
  2.34279182E+00  3.40719028E-04  6.40557639E+00  2.34279182E+00  3.40719028E-04
 -4.58502949E+00  1.33903507E+00 -3.49111972E-05 -4.58502949E+00  1.33903507E+00
 -3.49111972E-05 -4.58502949E+00  1.33903507E+00 -3.49111972E-05 -4.58502949E+00
  1.33903507E+00 -3.49111972E-05 -4.58502949E+00  1.33903507E+00 -3.49111972E-05
 -4.58502949E+00  1.33903507E+00 -3.49111972E-05 -4.58502949E+00  1.33903507E+00
 -3.49111972E-05 -4.58502949E+00  1.33903507E+00 -3.49111972E-05 -4.58502949E+00
  1.33903507E+00 -3.49111972E-05 -4.58502949E+00  1.33903507E+00 -3.49111972E-05
 -4.58687274E+00 -1.33724181E+00  2.53366257E-04 -4.58687274E+00 -1.33724181E+00
  2.53366257E-04 -4.58687274E+00 -1.33724181E+00  2.53366257E-04 -4.58687274E+00
 -1.33724181E+00  2.53366257E-04 -4.58687274E+00 -1.33724181E+00  2.53366257E-04
 -4.58687274E+00 -1.33724181E+00  2.53366257E-04 -4.58687274E+00 -1.33724181E+00
  2.53366257E-04 -4.58687274E+00 -1.33724181E+00  2.53366257E-04 -4.58687274E+00
 -1.33724181E+00  2.53366257E-04 -4.58687274E+00 -1.33724181E+00  2.53366257E-04
 -2.32640769E+00  4.72828769E+00 -2.28115635E-04 -2.32640769E+00  4.72828769E+00
 -2.28115635E-04 -2.32640769E+00  4.72828769E+00 -2.28115635E-04 -2.32640769E+00
  4.72828769E+00 -2.28115635E-04 -2.32640769E+00  4.72828769E+00 -2.28115635E-04
 -2.32640769E+00  4.72828769E+00 -2.28115635E-04 -6.40262682E+00  2.34751662E+00
  4.54698398E-04 -6.40262682E+00  2.34751662E+00  4.54698398E-04 -6.40262682E+00
  2.34751662E+00  4.54698398E-04 -6.40262682E+00  2.34751662E+00  4.54698398E-04
 -6.40262682E+00  2.34751662E+00  4.54698398E-04 -6.40262682E+00  2.34751662E+00
  4.54698398E-04 -6.40570617E+00 -2.34342900E+00  3.14595555E-04 -6.40570617E+00
 -2.34342900E+00  3.14595555E-04 -6.40570617E+00 -2.34342900E+00  3.14595555E-04
 -6.40570617E+00 -2.34342900E+00  3.14595555E-04 -6.40570617E+00 -2.34342900E+00
  3.14595555E-04 -6.40570617E+00 -2.34342900E+00  3.14595555E-04
Constraint Structure                       R   N=          54