CH3Cl cc-pvqz                                                           
SP        RHF                                                         CC-pVQZ             
Number of atoms                            I                5
Charge                                     I                0
Multiplicity                               I                1
Number of electrons                        I               26
Number of alpha electrons                  I               13
Number of beta electrons                   I               13
Number of basis functions                  I              204
Number of independant functions            I              204
Number of point charges in /Mol/           I                0
Number of translation vectors              I                0
Info1-9                                    I   N=           9
          15          15           0           0           0         110
           1           1           2
Num ILSW                                   I              100
ILSW                                       I   N=         100
           0           0           0           0           2           0
           0           0           0           0           0     1000000
           0           0           0           0           0           0
           0     1000000           1           0           0           0
           1           0           0           0     1000000           0
           0           0           0           0          -1           0
           0           0           0           0           0           0
           0           0           0           1           0           0
           0           0           1     1000000     1000000           0
           0           0           0           0           0           0
           0           0           0           0           0           0
           0           0           0           0           0           0
           0           0           0           0           0           0
           0           0           0           0           0           0
           0           0           0           0           0           0
           0           0           0           0           0           0
           0           0           0           0
Number of contracted shells                I               62
Highest angular momentum                   I                4
Largest degree of contraction              I               13
Number of primitive shells                 I              136
Pure/Cartesian d shells                    I                0
Pure/Cartesian f shells                    I                0
Virial Ratio                               R      2.000202027079468E+00
SCF Energy                                 R     -4.991535041440668E+02
Total Energy                               R     -4.991535041440668E+02
RMS Density                                R      9.195385519464724E-06
Atomic numbers                             I   N=           5
           6           1           1           1          17
Nuclear charges                            R   N=           5
  6.00000000E+00  1.00000000E+00  1.00000000E+00  1.00000000E+00  1.70000000E+01
Current cartesian coordinates              R   N=          15
 -1.07060619E-04 -2.11943845E+00 -8.35429561E-17 -1.95957475E+00 -2.81332235E+00
 -4.67903552E-17  9.81018571E-01 -2.81135302E+00  1.69694879E+00  9.81018571E-01
 -2.81135302E+00 -1.69694879E+00 -1.07060619E-04  1.24427407E+00  4.90517264E-17
Int Atom Types                             I   N=           5
           0           0           0           0           0
Force Field                                I                0
MM charges                                 R   N=           5
  0.00000000E+00  0.00000000E+00  0.00000000E+00  0.00000000E+00  0.00000000E+00
Integer atomic weights                     I   N=           5
          12           1           1           1          35
Real atomic weights                        R   N=           5
  1.20000000E+01  1.00782504E+00  1.00782504E+00  1.00782504E+00  3.49688527E+01
Atom residue info                          I   N=           5
           0           0           0           0           0
Atom fragment info                         I   N=           5
           0           0           0           0           0
Atom residue num                           I   N=           5
           0           0           0           0           0
Nuclear spins                              I   N=           5
           0           1           1           1           3
Nuclear ZEff                               R   N=           5
 -3.60000000E+00 -1.00000000E+00 -1.00000000E+00 -1.00000000E+00 -1.42400000E+01
Nuclear QMom                               R   N=           5
  0.00000000E+00  0.00000000E+00  0.00000000E+00  0.00000000E+00 -8.24900000E+00
Nuclear GFac                               R   N=           5
  0.00000000E+00  2.79284600E+00  2.79284600E+00  2.79284600E+00  8.21874000E-01
MicOpt                                     I   N=           5
           0           0           0           0           0
Constraint Structure                       R   N=          15
 -1.07060619E-04 -2.11943845E+00 -8.35429561E-17 -1.95957475E+00 -2.81332235E+00
 -4.67903552E-17  9.81018571E-01 -2.81135302E+00  1.69694879E+00  9.81018571E-01
 -2.81135302E+00 -1.69694879E+00 -1.07060619E-04  1.24427407E+00  4.90517264E-17
ONIOM Charges                              I   N=          16
           0           0           0           0           0           0
           0           0           0           0           0           0
           0           0           0           0
ONIOM Multiplicities                       I   N=          16
           1           0           0           0           0           0
           0           0           0           0           0           0
           0           0           0           0
Atom Layers                                I   N=           5
           1           1           1           1           1
Atom Modifiers                             I   N=           5
           0           0           0           0           0
Int Atom Modified Types                    I   N=           5
           0           0           0           0           0
Link Atoms                                 I   N=           5
           0           0           0           0           0
Atom Modified MM Charges                   R   N=           5
  0.00000000E+00  0.00000000E+00  0.00000000E+00  0.00000000E+00  0.00000000E+00
Link Distances                             R   N=          20
  0.00000000E+00  0.00000000E+00  0.00000000E+00  0.00000000E+00  0.00000000E+00
  0.00000000E+00  0.00000000E+00  0.00000000E+00  0.00000000E+00  0.00000000E+00
  0.00000000E+00  0.00000000E+00  0.00000000E+00  0.00000000E+00  0.00000000E+00
  0.00000000E+00  0.00000000E+00  0.00000000E+00  0.00000000E+00  0.00000000E+00
MxBond                                     I                4
NBond                                      I   N=           5
           4           1           1           1           1
IBond                                      I   N=          20
           2           3           4           5           1           0
           0           0           1           0           0           0
           1           0           0           0           1           0
           0           0
RBond                                      R   N=          20
  1.00000000E+00  1.00000000E+00  1.00000000E+00  1.00000000E+00  1.00000000E+00
  0.00000000E+00  0.00000000E+00  0.00000000E+00  1.00000000E+00  0.00000000E+00
  0.00000000E+00  0.00000000E+00  1.00000000E+00  0.00000000E+00  0.00000000E+00
  0.00000000E+00  1.00000000E+00  0.00000000E+00  0.00000000E+00  0.00000000E+00
Shell types                                I   N=          62
           0           0           0           0           0           1
           1           1           1          -2          -2          -2
          -3          -3          -4           0           0           0
           0           1           1           1          -2          -2
          -3           0           0           0           0           1
           1           1          -2          -2          -3           0
           0           0           0           1           1           1
          -2          -2          -3           0           0           0
           0           0           0           1           1           1
           1           1          -2          -2          -2          -3
          -3          -4
Number of primitives per shell             I   N=          62
           9           9           1           1           1           3
           1           1           1           1           1           1
           1           1           1           3           1           1
           1           1           1           1           1           1
           1           3           1           1           1           1
           1           1           1           1           1           3
           1           1           1           1           1           1
           1           1           1          13          13          13
           1           1           1           8           8           1
           1           1           1           1           1           1
           1           1
Shell to atom map                          I   N=          62
           1           1           1           1           1           1
           1           1           1           1           1           1
           1           1           1           2           2           2
           2           2           2           2           2           2
           2           3           3           3           3           3
           3           3           3           3           3           4
           4           4           4           4           4           4
           4           4           4           5           5           5
           5           5           5           5           5           5
           5           5           5           5           5           5
           5           5
Primitive exponents                        R   N=         136
  3.39800000E+04  5.08900000E+03  1.15700000E+03  3.26600000E+02  1.06100000E+02
  3.81100000E+01  1.47500000E+01  6.03500000E+00  2.53000000E+00  3.39800000E+04
  5.08900000E+03  1.15700000E+03  3.26600000E+02  1.06100000E+02  3.81100000E+01
  1.47500000E+01  6.03500000E+00  2.53000000E+00  7.35500000E-01  2.90500000E-01
  1.11100000E-01  3.45100000E+01  7.91500000E+00  2.36800000E+00  8.13200000E-01
  2.89000000E-01  1.00700000E-01  1.84800000E+00  6.49000000E-01  2.28000000E-01
  1.41900000E+00  4.85000000E-01  1.01100000E+00  8.26400000E+01  1.24100000E+01
  2.82400000E+00  7.97700000E-01  2.58100000E-01  8.98900000E-02  2.29200000E+00
  8.38000000E-01  2.92000000E-01  2.06200000E+00  6.62000000E-01  1.39700000E+00
  8.26400000E+01  1.24100000E+01  2.82400000E+00  7.97700000E-01  2.58100000E-01
  8.98900000E-02  2.29200000E+00  8.38000000E-01  2.92000000E-01  2.06200000E+00
  6.62000000E-01  1.39700000E+00  8.26400000E+01  1.24100000E+01  2.82400000E+00
  7.97700000E-01  2.58100000E-01  8.98900000E-02  2.29200000E+00  8.38000000E-01
  2.92000000E-01  2.06200000E+00  6.62000000E-01  1.39700000E+00  8.34900000E+05
  1.25000000E+05  2.84300000E+04  8.03300000E+03  2.60800000E+03  9.33900000E+02
  3.60000000E+02  1.47000000E+02  6.28800000E+01  2.76000000E+01  1.10800000E+01
  5.07500000E+00  2.27800000E+00  8.34900000E+05  1.25000000E+05  2.84300000E+04
  8.03300000E+03  2.60800000E+03  9.33900000E+02  3.60000000E+02  1.47000000E+02
  6.28800000E+01  2.76000000E+01  1.10800000E+01  5.07500000E+00  2.27800000E+00
  8.34900000E+05  1.25000000E+05  2.84300000E+04  8.03300000E+03  2.60800000E+03
  9.33900000E+02  3.60000000E+02  1.47000000E+02  6.28800000E+01  2.76000000E+01
  1.10800000E+01  5.07500000E+00  2.27800000E+00  7.77500000E-01  3.52700000E-01
  1.43100000E-01  1.70300000E+03  4.03600000E+02  1.30300000E+02  4.90500000E+01
  2.02600000E+01  8.78700000E+00  3.91900000E+00  1.76500000E+00  1.70300000E+03
  4.03600000E+02  1.30300000E+02  4.90500000E+01  2.02600000E+01  8.78700000E+00
  3.91900000E+00  1.76500000E+00  7.20700000E-01  2.83900000E-01  1.06000000E-01
  2.54000000E-01  6.28000000E-01  1.55100000E+00  4.23000000E-01  1.08900000E+00
  8.27000000E-01
Contraction coefficients                   R   N=         136
  9.16345457E-05  7.08909013E-04  3.71875140E-03  1.54671057E-02  5.32980755E-02
  1.48068335E-01  3.07762174E-01  4.02129645E-01  2.18564503E-01 -5.57103602E-05
 -4.42750757E-04 -2.30171751E-03 -9.74638091E-03 -3.37546140E-02 -1.00161363E-01
 -2.26280823E-01 -4.14875052E-01 -3.46046369E-01  1.00000000E+00  1.00000000E+00
  1.00000000E+00  3.16878552E-02  2.12894307E-01  8.39586752E-01  1.00000000E+00
  1.00000000E+00  1.00000000E+00  1.00000000E+00  1.00000000E+00  1.00000000E+00
  1.00000000E+00  1.00000000E+00  1.00000000E+00  2.29507578E-02  1.75540118E-01
  8.64703551E-01  1.00000000E+00  1.00000000E+00  1.00000000E+00  1.00000000E+00
  1.00000000E+00  1.00000000E+00  1.00000000E+00  1.00000000E+00  1.00000000E+00
  2.29507578E-02  1.75540118E-01  8.64703551E-01  1.00000000E+00  1.00000000E+00
  1.00000000E+00  1.00000000E+00  1.00000000E+00  1.00000000E+00  1.00000000E+00
  1.00000000E+00  1.00000000E+00  2.29507578E-02  1.75540118E-01  8.64703551E-01
  1.00000000E+00  1.00000000E+00  1.00000000E+00  1.00000000E+00  1.00000000E+00
  1.00000000E+00  1.00000000E+00  1.00000000E+00  1.00000000E+00  2.31681360E-05
  1.80135507E-04  9.47703751E-04  4.00106809E-03  1.44617365E-02  4.56549268E-02
  1.23238085E-01  2.64347732E-01  3.82958189E-01  2.70912203E-01  4.71366076E-02
 -3.71736091E-03  2.19140369E-03 -6.67847206E-06 -5.18763160E-05 -2.73416646E-04
 -1.15587912E-03 -4.21768115E-03 -1.35610999E-02 -3.85647855E-02 -9.21868542E-02
 -1.72274783E-01 -1.79561510E-01  1.18064084E-01  5.79093395E-01  4.53731282E-01
  3.34821475E-06  2.59359173E-05  1.37004868E-04  5.77796490E-04  2.11687053E-03
  6.79181112E-03  1.95030960E-02  4.68246982E-02  9.05746476E-02  9.70890498E-02
 -6.71684171E-02 -4.49277731E-01 -5.93655471E-01  1.00000000E+00  1.00000000E+00
  1.00000000E+00  4.76097031E-04  4.08175569E-03  2.14280824E-02  7.98059104E-02
  2.09833610E-01  3.66528628E-01  3.73338049E-01  1.46926814E-01 -5.07223328E-04
 -4.32430921E-03 -2.30707725E-02 -8.67020912E-02 -2.37808140E-01 -4.22833735E-01
 -4.84224880E-01  1.51696036E-01  1.00000000E+00  1.00000000E+00  1.00000000E+00
  1.00000000E+00  1.00000000E+00  1.00000000E+00  1.00000000E+00  1.00000000E+00
  1.00000000E+00
Coordinates of each shell                  R   N=         186
 -1.07060619E-04 -2.11943845E+00 -8.35429561E-17 -1.07060619E-04 -2.11943845E+00
 -8.35429561E-17 -1.07060619E-04 -2.11943845E+00 -8.35429561E-17 -1.07060619E-04
 -2.11943845E+00 -8.35429561E-17 -1.07060619E-04 -2.11943845E+00 -8.35429561E-17
 -1.07060619E-04 -2.11943845E+00 -8.35429561E-17 -1.07060619E-04 -2.11943845E+00
 -8.35429561E-17 -1.07060619E-04 -2.11943845E+00 -8.35429561E-17 -1.07060619E-04
 -2.11943845E+00 -8.35429561E-17 -1.07060619E-04 -2.11943845E+00 -8.35429561E-17
 -1.07060619E-04 -2.11943845E+00 -8.35429561E-17 -1.07060619E-04 -2.11943845E+00
 -8.35429561E-17 -1.07060619E-04 -2.11943845E+00 -8.35429561E-17 -1.07060619E-04
 -2.11943845E+00 -8.35429561E-17 -1.07060619E-04 -2.11943845E+00 -8.35429561E-17
 -1.95957475E+00 -2.81332235E+00 -4.67903552E-17 -1.95957475E+00 -2.81332235E+00
 -4.67903552E-17 -1.95957475E+00 -2.81332235E+00 -4.67903552E-17 -1.95957475E+00
 -2.81332235E+00 -4.67903552E-17 -1.95957475E+00 -2.81332235E+00 -4.67903552E-17
 -1.95957475E+00 -2.81332235E+00 -4.67903552E-17 -1.95957475E+00 -2.81332235E+00
 -4.67903552E-17 -1.95957475E+00 -2.81332235E+00 -4.67903552E-17 -1.95957475E+00
 -2.81332235E+00 -4.67903552E-17 -1.95957475E+00 -2.81332235E+00 -4.67903552E-17
  9.81018571E-01 -2.81135302E+00  1.69694879E+00  9.81018571E-01 -2.81135302E+00
  1.69694879E+00  9.81018571E-01 -2.81135302E+00  1.69694879E+00  9.81018571E-01
 -2.81135302E+00  1.69694879E+00  9.81018571E-01 -2.81135302E+00  1.69694879E+00
  9.81018571E-01 -2.81135302E+00  1.69694879E+00  9.81018571E-01 -2.81135302E+00
  1.69694879E+00  9.81018571E-01 -2.81135302E+00  1.69694879E+00  9.81018571E-01
 -2.81135302E+00  1.69694879E+00  9.81018571E-01 -2.81135302E+00  1.69694879E+00
  9.81018571E-01 -2.81135302E+00 -1.69694879E+00  9.81018571E-01 -2.81135302E+00
 -1.69694879E+00  9.81018571E-01 -2.81135302E+00 -1.69694879E+00  9.81018571E-01
 -2.81135302E+00 -1.69694879E+00  9.81018571E-01 -2.81135302E+00 -1.69694879E+00
  9.81018571E-01 -2.81135302E+00 -1.69694879E+00  9.81018571E-01 -2.81135302E+00
 -1.69694879E+00  9.81018571E-01 -2.81135302E+00 -1.69694879E+00  9.81018571E-01
 -2.81135302E+00 -1.69694879E+00  9.81018571E-01 -2.81135302E+00 -1.69694879E+00
 -1.07060619E-04  1.24427407E+00  4.90517264E-17 -1.07060619E-04  1.24427407E+00
  4.90517264E-17 -1.07060619E-04  1.24427407E+00  4.90517264E-17 -1.07060619E-04
  1.24427407E+00  4.90517264E-17 -1.07060619E-04  1.24427407E+00  4.90517264E-17
 -1.07060619E-04  1.24427407E+00  4.90517264E-17 -1.07060619E-04  1.24427407E+00
  4.90517264E-17 -1.07060619E-04  1.24427407E+00  4.90517264E-17 -1.07060619E-04
  1.24427407E+00  4.90517264E-17 -1.07060619E-04  1.24427407E+00  4.90517264E-17
 -1.07060619E-04  1.24427407E+00  4.90517264E-17 -1.07060619E-04  1.24427407E+00
  4.90517264E-17 -1.07060619E-04  1.24427407E+00  4.90517264E-17 -1.07060619E-04
  1.24427407E+00  4.90517264E-17 -1.07060619E-04  1.24427407E+00  4.90517264E-17
 -1.07060619E-04  1.24427407E+00  4.90517264E-17 -1.07060619E-04  1.24427407E+00
  4.90517264E-17
Alpha Orbital Energies                     R   N=         204
 -1.04825656E+02 -1.12932898E+01 -1.05509575E+01 -8.01808312E+00 -8.01635308E+00
 -8.01635291E+00 -1.12706497E+00 -9.11093163E-01 -6.11801864E-01 -6.11685858E-01
 -5.48205383E-01 -4.35658262E-01 -4.35620010E-01  1.07755098E-01  1.63463841E-01
  1.75697285E-01  1.75738146E-01  2.84358224E-01  2.88715383E-01  2.88904595E-01
  3.35453440E-01  3.76791913E-01  3.76807448E-01  4.57606073E-01  4.57625148E-01
  4.72633346E-01  5.10709890E-01  5.10739197E-01  5.55072555E-01  5.61782099E-01
  5.61861543E-01  6.88551713E-01  7.96033445E-01  7.96230030E-01  7.99327568E-01
  8.35665991E-01  8.60825028E-01  8.60868245E-01  9.11454981E-01  9.67481604E-01
  9.67676340E-01  9.67840936E-01  1.11259059E+00  1.11260732E+00  1.14218235E+00
  1.17787613E+00  1.17794960E+00  1.40116929E+00  1.40134951E+00  1.48965218E+00
  1.54706119E+00  1.54732536E+00  1.54739608E+00  1.56602282E+00  1.57113497E+00
  1.57115655E+00  1.61325824E+00  1.64573370E+00  1.72832482E+00  1.72834222E+00
  1.80459121E+00  1.80478096E+00  1.90467256E+00  1.90484285E+00  2.00291979E+00
  2.01676319E+00  2.02781919E+00  2.02797737E+00  2.06475454E+00  2.13082166E+00
  2.13087556E+00  2.19402348E+00  2.19420599E+00  2.25946291E+00  2.32544844E+00
  2.41185331E+00  2.41234050E+00  2.41998199E+00  2.49509511E+00  2.49535379E+00
  2.54275541E+00  2.65585967E+00  2.65616722E+00  2.71711230E+00  2.71726647E+00
  2.73946168E+00  2.86511400E+00  2.95005169E+00  2.95037106E+00  3.05053412E+00
  3.05124619E+00  3.05995113E+00  3.14576461E+00  3.32546343E+00  3.32559844E+00
  3.35791811E+00  3.36224192E+00  3.43563108E+00  3.52297621E+00  3.52353549E+00
  3.65927276E+00  3.78606616E+00  3.78625162E+00  3.89288204E+00  3.96177197E+00
  3.96178544E+00  4.07573923E+00  4.07573950E+00  4.09558967E+00  4.12439079E+00
  4.14052176E+00  4.14059147E+00  4.16761213E+00  4.16765590E+00  4.28507091E+00
  4.28569774E+00  4.32910623E+00  4.34378442E+00  4.37809283E+00  4.44075761E+00
  4.44123314E+00  4.58577552E+00  4.58587960E+00  4.66321039E+00  4.81536172E+00
  4.81562070E+00  4.88891320E+00  5.59630533E+00  5.59677707E+00  5.69285128E+00
  5.78229063E+00  5.78276027E+00  5.84285897E+00  6.04153744E+00  6.04169110E+00
  6.06404959E+00  6.17520656E+00  6.17539256E+00  6.19697079E+00  6.25538462E+00
  6.25572234E+00  6.38233026E+00  6.39172502E+00  6.40925905E+00  6.41021702E+00
  6.46884536E+00  6.46887064E+00  6.52489181E+00  6.52491612E+00  6.53211240E+00
  6.66678384E+00  6.66746918E+00  6.78615719E+00  6.94797919E+00  7.02319004E+00
  7.02320489E+00  7.15233822E+00  7.15238541E+00  7.24445506E+00  7.32832305E+00
  7.53031550E+00  7.57029158E+00  7.57096627E+00  7.71088863E+00  7.71174072E+00
  7.89788486E+00  7.93626013E+00  7.93637133E+00  7.95824694E+00  8.07366523E+00
  8.07457463E+00  8.13311089E+00  8.24337182E+00  8.24352244E+00  8.29194188E+00
  8.61840762E+00  8.61853887E+00  8.65690470E+00  8.66856355E+00  8.69967145E+00
  8.70060503E+00  8.81578508E+00  8.90525381E+00  8.90559202E+00  9.04310421E+00
  9.15805569E+00  9.15835667E+00  9.16595927E+00  9.40959796E+00  9.41134596E+00
  1.00926119E+01  1.00927702E+01  1.01126232E+01  1.02933624E+01  1.02935076E+01
  1.04614009E+01  1.05209471E+01  1.05213693E+01  1.08011450E+01  1.13489980E+01
  1.26701913E+01  1.26704668E+01  2.40294404E+01  2.67356155E+01
Alpha MO coefficients                      R   N=       41616
  3.01368056E-05  3.68272433E-05  8.36067328E-05 -1.04959653E-04  7.82993509E-05
 -1.79228539E-08  1.68042698E-06  0.00000000E+00  1.01956961E-07  1.81280551E-05
  0.00000000E+00  2.40487538E-07 -3.25370123E-04  0.00000000E+00  6.18109810E-08
 -8.48592699E-06  0.00000000E+00 -4.30974947E-06  0.00000000E+00  0.00000000E+00
 -7.47838069E-06 -2.19981030E-09  2.02866480E-05  0.00000000E+00  0.00000000E+00
  3.50639319E-05 -2.98943318E-08  3.76788179E-05  0.00000000E+00  0.00000000E+00
  6.55543888E-05 -1.79304561E-07  0.00000000E+00  6.68344777E-07  2.61649145E-06
  0.00000000E+00  0.00000000E+00 -1.67371591E-07  3.38767490E-06  0.00000000E+00
 -2.06126590E-05  4.10608684E-06  0.00000000E+00  0.00000000E+00  5.39762730E-06
  5.24038472E-06 -2.59712068E-06  0.00000000E+00  0.00000000E+00 -3.87712710E-06
 -3.04869466E-06  0.00000000E+00  0.00000000E+00 -5.15849619E-06  1.13461772E-06
 -1.23403708E-06  1.10247345E-05 -9.17166169E-05 -3.70707078E-06  2.34892979E-06
 -5.43283104E-06  0.00000000E+00 -8.21021746E-06  1.69827915E-05  0.00000000E+00
 -3.45305944E-05  7.51208901E-06  0.00000000E+00  1.80670185E-06  0.00000000E+00
  0.00000000E+00  2.62896797E-06 -1.14532066E-06 -6.79114088E-06  0.00000000E+00
  0.00000000E+00 -1.96752803E-05  8.40664429E-06  0.00000000E+00 -1.29346871E-06
 -1.19960024E-06  0.00000000E+00  0.00000000E+00 -2.81500742E-06 -1.72497092E-06
 -1.22302636E-06  1.10182321E-05 -9.19656597E-05 -3.74101495E-06 -1.17466764E-06
 -5.41480044E-06 -2.04616424E-06  4.10871366E-06  1.69067575E-05  7.16707054E-06
  1.72511729E-05  7.61101606E-06  3.00728443E-05  1.47907326E-06 -2.21536488E-07
  9.93332876E-07  2.80741654E-06  5.77501170E-07 -1.19656521E-05 -3.43258781E-06
 -7.23526142E-06 -1.66845459E-05 -4.20021998E-06  1.62094124E-06 -1.46012524E-07
 -1.33951658E-06  2.08797767E-06 -1.09022281E-07  1.61435147E-06 -1.62394492E-06
 -1.22302636E-06  1.10182321E-05 -9.19656597E-05 -3.74101495E-06 -1.17466764E-06
 -5.41480044E-06  2.04616424E-06  4.10871366E-06  1.69067575E-05 -7.16707054E-06
  1.72511729E-05  7.61101606E-06 -3.00728443E-05  1.47907326E-06  2.21536488E-07
 -9.93332876E-07  2.80741654E-06  5.77501170E-07 -1.19656521E-05  3.43258781E-06
  7.23526142E-06 -1.66845459E-05 -4.20021998E-06 -1.62094124E-06 -1.46012524E-07
 -1.33951658E-06 -2.08797767E-06  1.09022281E-07  1.61435147E-06 -1.62394492E-06
  1.00005617E+00 -1.58168377E-04 -2.12441262E-04 -1.03636636E-03  6.41547063E-04
 -3.73260098E-05  5.33519433E-08  4.35441363E-05  0.00000000E+00  5.78373667E-08
  9.23538808E-05  0.00000000E+00 -3.24096470E-08  6.32125815E-05  0.00000000E+00
  8.09400183E-08 -2.56383325E-04  0.00000000E+00 -2.49916623E-09  1.30913848E-05
  0.00000000E+00 -4.98333964E-05  0.00000000E+00  0.00000000E+00 -8.63463578E-05
 -5.22332606E-08 -1.99559639E-05  0.00000000E+00  0.00000000E+00 -3.45532862E-05
 -1.58422426E-08  6.44110253E-06  0.00000000E+00  0.00000000E+00  1.11535908E-05
  9.64729361E-09  0.00000000E+00  8.44231472E-07  3.43709286E-05  0.00000000E+00
  0.00000000E+00 -2.53861137E-07  4.43877385E-05  0.00000000E+00 -1.38127117E-07
 -5.33824475E-06  0.00000000E+00  0.00000000E+00  3.86183868E-08 -6.89613744E-06
  4.68396091E-06  0.00000000E+00  0.00000000E+00  6.98213488E-06 -7.75381041E-07
  0.00000000E+00  0.00000000E+00  9.23732632E-06  3.02276184E-07  9.93825911E-01
  1.99812380E-03  1.95236339E-02 -7.54004577E-03 -6.31161270E-04 -6.67662267E-07
  1.12446963E-03  0.00000000E+00  6.91979825E-07 -6.03116400E-04  0.00000000E+00
 -1.84098906E-06  1.75491888E-04  0.00000000E+00 -8.39167952E-08  2.16180855E-05
  0.00000000E+00 -2.12450576E-05  0.00000000E+00  0.00000000E+00 -3.67867246E-05
  9.75796560E-10  1.80524800E-04  0.00000000E+00  0.00000000E+00  3.13392657E-04
  2.86807911E-07 -5.93731303E-05  0.00000000E+00  0.00000000E+00 -1.05270717E-04
  1.53186998E-07  0.00000000E+00  2.18201322E-04 -1.35719916E-04  0.00000000E+00
  0.00000000E+00 -5.60676545E-05 -1.75691146E-04  0.00000000E+00 -2.47966137E-05
  6.32480549E-05  0.00000000E+00  0.00000000E+00  6.35632066E-06  8.16438551E-05
 -5.31289731E-06  0.00000000E+00  0.00000000E+00 -7.69489577E-06 -1.00376228E-04
  0.00000000E+00  0.00000000E+00 -1.04896552E-05  3.78975482E-05  1.15745975E-04
  1.37728751E-04  1.61219546E-03  1.23337972E-05  3.40049301E-05  1.83561762E-06
  0.00000000E+00 -8.94099820E-05  1.10973511E-05  0.00000000E+00  6.17062855E-04
  2.13515667E-04  0.00000000E+00 -1.70508893E-05  0.00000000E+00  0.00000000E+00
  1.13629336E-05  1.94321379E-05  4.28610992E-05  0.00000000E+00  0.00000000E+00
 -5.55993393E-05  1.12389016E-07  0.00000000E+00 -2.01277245E-05 -1.90554674E-05
  0.00000000E+00  0.00000000E+00 -8.19933402E-06  4.29547443E-05  1.15688731E-04
  1.38174024E-04  1.61215152E-03  1.22650395E-05 -1.70049258E-05  1.79182724E-06
 -2.94114677E-05  4.45576547E-05  1.12870151E-05  7.71581471E-05 -3.08714719E-04
  2.12499823E-04 -5.34881565E-04  9.51073804E-06  1.77654045E-05 -1.68046578E-05
 -3.95441750E-06 -9.74644797E-06 -4.13174726E-05 -5.62383023E-05 -2.34612222E-07
 -6.85817599E-06 -8.57662861E-08  6.85793705E-06 -1.53188203E-05  2.99786295E-05
  8.77915940E-06  3.58627787E-05  1.06228523E-05  5.03250836E-06  1.15688731E-04
  1.38174024E-04  1.61215152E-03  1.22650395E-05 -1.70049258E-05  1.79182724E-06
  2.94114677E-05  4.45576547E-05  1.12870151E-05 -7.71581471E-05 -3.08714719E-04
  2.12499823E-04  5.34881565E-04  9.51073804E-06 -1.77654045E-05  1.68046578E-05
 -3.95441750E-06 -9.74644797E-06 -4.13174726E-05  5.62383023E-05  2.34612222E-07
 -6.85817599E-06 -8.57662861E-08 -6.85793705E-06 -1.53188203E-05  2.99786295E-05
 -8.77915940E-06 -3.58627787E-05  1.06228523E-05  5.03250836E-06 -3.13356425E-05
 -5.22518352E-05 -2.02838908E-04 -3.70588756E-04  4.71479544E-04  8.13600563E-04
 -1.29061938E-07 -9.25538222E-05  0.00000000E+00 -1.17186568E-07 -1.35588412E-04
  0.00000000E+00  9.13575734E-08  5.04275932E-05  0.00000000E+00 -1.68472847E-07
 -1.06575004E-03  0.00000000E+00 -3.65302367E-09 -2.19382024E-04  0.00000000E+00
 -2.58528237E-04  0.00000000E+00  0.00000000E+00 -4.47398710E-04  1.46602243E-07
 -1.00046817E-04  0.00000000E+00  0.00000000E+00 -1.73406826E-04  1.68895062E-09
  1.13377901E-05  0.00000000E+00  0.00000000E+00  1.96730433E-05 -4.80608767E-09
  0.00000000E+00 -1.65250557E-05  1.33270490E-04  0.00000000E+00  0.00000000E+00
  4.36895535E-06  1.71822746E-04  0.00000000E+00  7.07454004E-06  6.29024977E-06
  0.00000000E+00  0.00000000E+00 -1.84049874E-06  8.19426460E-06  1.34874842E-05
  0.00000000E+00  0.00000000E+00  2.00981508E-05  3.15061387E-06  0.00000000E+00
  0.00000000E+00  2.65795556E-05 -1.22073914E-06 -3.63484968E-04 -1.55330238E-04
 -6.70352953E-04  1.04041533E-03 -1.17986239E-03  1.77088237E-08  2.66504923E-05
  0.00000000E+00 -4.41772119E-07 -5.33056902E-05  0.00000000E+00  3.98319054E-08
  2.27364351E-03  0.00000000E+00 -2.08166028E-07 -1.73813210E-04  0.00000000E+00
  2.18937385E-05  0.00000000E+00  0.00000000E+00  3.81167035E-05 -1.60777626E-08
 -1.59263551E-04  0.00000000E+00  0.00000000E+00 -2.76673083E-04  3.37579240E-07
 -2.68002392E-04  0.00000000E+00  0.00000000E+00 -4.68280852E-04  1.63052227E-06
  0.00000000E+00 -4.25970523E-06 -1.16433374E-05  0.00000000E+00  0.00000000E+00
  1.15249357E-06 -1.50937479E-05  0.00000000E+00  1.86367756E-04 -9.51844178E-05
  0.00000000E+00  0.00000000E+00 -4.80413674E-05 -1.22563640E-04  2.67223576E-05
  0.00000000E+00  0.00000000E+00  4.00698560E-05  6.70541323E-06  0.00000000E+00
  0.00000000E+00  5.28383707E-05 -2.41182511E-06  1.12716660E-05 -1.54910325E-04
  6.42385696E-04  6.32307925E-06 -1.53028171E-05  2.91156130E-05  0.00000000E+00
  2.78511316E-05 -1.12666882E-04  0.00000000E+00  2.35329162E-04 -8.68189225E-05
  0.00000000E+00 -9.84946350E-06  0.00000000E+00  0.00000000E+00 -1.64126425E-05
  3.51722698E-06  4.40266206E-05  0.00000000E+00  0.00000000E+00  1.38835500E-04
 -5.55496161E-05  0.00000000E+00  3.38936739E-06  6.65193723E-06  0.00000000E+00
  0.00000000E+00  1.68008022E-05  9.90002747E-06  1.13421782E-05 -1.55727963E-04
  6.41600669E-04  6.61659158E-06  7.63126636E-06  2.91729664E-05  1.33159632E-05
 -1.36482429E-05 -1.12968498E-04 -2.40671656E-05 -1.17108707E-04 -8.85941257E-05
 -2.04849282E-04 -9.48500168E-06  2.63167597E-07 -3.03234196E-06 -1.66308565E-05
 -1.77377356E-06  8.51957089E-05  2.71338509E-05  4.83519523E-05  1.15466218E-04
  2.80703300E-05 -9.20880670E-06 -3.08497283E-06  7.59075627E-06 -1.18424733E-05
  6.61524163E-07 -8.15223468E-06  9.16757779E-06  1.13421782E-05 -1.55727963E-04
  6.41600669E-04  6.61659158E-06  7.63126636E-06  2.91729664E-05 -1.33159632E-05