
 Primary working directories    : /home/willy/tmp
 Secondary working directories  : /home/willy/tmp
 Wavefunction directory         : /home/willy/wfu/
 Main file repository           : /home/willy/tmp/

 SHA1      : 0b0b022c660e73fb8d4a354a6920c32f9035fdc5
 NAME      : 2015.1.3
 ARCHNAME  : linux/x86_64
 FC        : /opt/intel/composer_xe_2015.1.133/bin/intel64/ifort
 BLASLIB   : -Wl,-_start-group /opt/intel/mkl/lib/intel64/libmkl_intel_ilp64.a /opt/intel/mkl/lib/intel64/libmkl_intel_thread.a /opt/intel/mkl/lib/intel64/libmkl_core.a -Wl,-_end-group
 id        : uma

 Nodes             nprocs
 neptuno.qfa.uam.es    1

 Using customized tuning parameters: mindgm=1; mindgv=20; mindgc=4; mindgr=1; noblas=0; minvec=7
 default implementation of scratch files=df  

   ***, ClH   1 Pi
   memory,800,m
   gparam,ibank=1
   gprint,basis,civector                                                         !,orbitals
   GTHRESH, optgrad=1.e-6, energy=1.e-9;
   basis=cc-pv5z
   geometry={
      Cl
      H,Cl,2.409
   }
   wf,18,2,0
                                                                                 ! hf
   {multi
    state,1}
   {mrci
    state,1
    dm,6000.2}
 
      PUT,xyz,clh.xyz,old
                                                                                 !    {put,xml,lih.xml;keepspherical}
 
      {matrop
      load,d,den,6000.2,state=1.2
      print,d
      }
 
                                                                                 !    {matrop
                                                                                 !    load,d,den,6000.2,state=2.1
                                                                                 !    print,d
                                                                                 !    }
 
      {matrop
      load,orb
      print,orb
      }

 Variables initialized (889), CPU time= 0.00 sec
 Commands  initialized (702), CPU time= 0.01 sec, 572 directives.
 Default parameters read. Elapsed time= 0.05 sec

 Checking input...
 Passed
1


                                         ***  PROGRAM SYSTEM MOLPRO  ***
                                       Copyright, TTI GmbH Stuttgart, 2015
                                    Version 2015.1 linked Feb  5 2016 14:18:43


 **********************************************************************************************************************************
 LABEL *                                                                                 
  64 bit serial version                                                                  DATE: 20-Jul-18          TIME: 11:48:17  
 **********************************************************************************************************************************

 SHA1:             0b0b022c660e73fb8d4a354a6920c32f9035fdc5
 **********************************************************************************************************************************

 MOLPRO SYSTEM PARAMETERS:

 LSEG     =   128   INTREL   =     1   IVECT    =     1   MINVEC   =     7   IBANK    =     1   LTRACK   =  4096
 LTR      =     1   NCPUS    =     1   NOBUFF   =     0   IASYN    =     0   NCACHE   = 16384   MXMBLK   =    64
 MXMBLN   =    64   MINBR1   =  1000   NCHUNK1  =     1   LENBUF   = 32768   NTR      = 32768   MXDMP    =     3
 UNROLL   =     2   NOBLAS   =     0   MINDGM   =     1   MINDGV   =    20   MINDGL   =     4   MINDGR   =     1
 MINDGC   =     4   MINDGF   =  5000   MFLOPDGM = 10000   MFLOPDGV =  4000   MFLOPMXM =  5000   MFLOPMXV =  4000
 MPPLAT   =     3   MPPSPEED =  1600   MXMALAT  =     6   OLDDIAG2 =     0   MINCUDA  =   500   MINDGM2  =    90
 DSYEVD   =     3   DSYEVDG  =     3
 


 THRESHOLDS:

 ZERO    =  1.00D-12  ONEINT  =  1.00D-12  TWOINT  =  1.00D-11  PREFAC  =  1.00D-14  LOCALI  =  1.00D-09  EORDER  =  1.00D-04
 ENERGY  =  1.00D-09  ETEST   =  0.00D+00  EDENS   =  0.00D+00  THRDEDEF=  1.00D-06  GRADIENT=  1.00D-02  STEP    =  1.00D-03
 ORBITAL =  1.00D-05  CIVEC   =  1.00D-05  COEFF   =  1.00D-04  PRINTCI =  5.00D-02  PUNCHCI =  9.90D+01  OPTGRAD =  1.00D-06
 OPTENERG=  1.00D-06  OPTSTEP =  3.00D-04  THRGRAD =  1.00D-10  COMPRESS=  1.00D-11  VARMIN  =  1.00D-07  VARMAX  =  1.00D-03
 THRDOUB =  0.00D+00  THRDIV  =  1.00D-05  THRRED  =  1.00D-07  THRPSP  =  1.00D+00  THRDC   =  1.00D-10  THRCS   =  1.00D-10
 THRNRM  =  1.00D-08  THREQ   =  0.00D+00  THRDE   =  1.00D+00  THRREF  =  1.00D-05  SPARFAC =  1.00D+00  THRDLP  =  1.00D-07
 THRDIA  =  1.00D-10  THRDLS  =  1.00D-07  THRGPS  =  0.00D+00  THRKEX  =  0.00D+00  THRDIS  =  2.00D-01  THRVAR  =  1.00D-10
 THRLOC  =  1.00D-06  THRGAP  =  1.00D-06  THRLOCT = -1.00D+00  THRGAPT = -1.00D+00  THRORB  =  1.00D-06  THRMLTP =  0.00D+00
 THRCPQCI=  1.00D-10  KEXTA   =  0.00D+00  THRCOARS=  0.00D+00  SYMTOL  =  1.00D-06  GRADTOL =  1.00D-06  THROVL  =  1.00D-08
 THRORTH =  1.00D-08  GRID    =  1.00D-06  GRIDMAX =  1.00D-03  DTMAX   =  0.00D+00  THROCCDE=  1.00D-01  THROCCDE=  1.00D-01



 Variable memory set to  800000000 words,  buffer space   230000 words

 SETTING BASIS          =    CC-PV5Z


 Recomputing integrals since basis changed


 Using spherical harmonics

 Library entry CL     S cc-pV5Z              selected for orbital group  1
 Library entry CL     P cc-pV5Z              selected for orbital group  1
 Library entry CL     D cc-pV5Z              selected for orbital group  1
 Library entry CL     F cc-pV5Z              selected for orbital group  1
 Library entry CL     G cc-pV5Z              selected for orbital group  1
 Library entry CL     H cc-pV5Z              selected for orbital group  1
 Library entry H      S cc-pV5Z              selected for orbital group  2
 Library entry H      P cc-pV5Z              selected for orbital group  2
 Library entry H      D cc-pV5Z              selected for orbital group  2
 Library entry H      F cc-pV5Z              selected for orbital group  2
 Library entry H      G cc-pV5Z              selected for orbital group  2

1PROGRAM * SEWARD (Integral evaluation for generally contracted gaussian basis sets)     Author: Roland Lindh, 1990

 Geometry written to block  1 of record 700

 Orientation using atomic masses  
 Molecule type: Linear
 Symmetry elements: X,Y
 Rotational constants:     317.3083590    317.3083590      0.0000000 GHz  (calculated with average atomic masses)

 Point group  C2v 



 ATOMIC COORDINATES

 NR  ATOM    CHARGE       X              Y              Z

   1  CL     17.00    0.000000000    0.000000000   -0.066595306
   2  H       1.00    0.000000000    0.000000000    2.342404694

 Bond lengths in Bohr (Angstrom)

 1-2  2.409000000
     ( 1.274787901)


 BASIS DATA

   Nr Sym  Nuc  Type         Exponents   Contraction coefficients

    1.1 A1    1  1s     6410000.000000     0.000002   -0.000001    0.000000    0.000000    0.000000    0.000000
                                           0.000000
    2.1 A1               959600.000000     0.000014   -0.000004    0.000001    0.000000    0.000000    0.000000
                                           0.000000
    3.1 A1               218300.000000     0.000074   -0.000021    0.000006    0.000000    0.000000    0.000000
                                           0.000000
    4.1 A1                61810.000000     0.000314   -0.000088    0.000027    0.000000    0.000000    0.000000
                                           0.000000
    5.1 A1                20140.000000     0.001146   -0.000322    0.000097    0.000000    0.000000    0.000000
                                           0.000000
    6.1 A1                 7264.000000     0.003739   -0.001053    0.000318    0.000000    0.000000    0.000000
                                           0.000000
    7.1 A1                 2832.000000     0.011095   -0.003142    0.000952    0.000000    0.000000    0.000000
                                           0.000000
                           1175.000000     0.030115   -0.008664    0.002624    0.000000    0.000000    0.000000
                                           0.000000
                            512.600000     0.073914   -0.021935    0.006682    0.000000    0.000000    0.000000
                                           0.000000
                            233.000000     0.158258   -0.050258    0.015359    0.000000    0.000000    0.000000
                                           0.000000
                            109.500000     0.274753   -0.099541    0.030943    0.000000    0.000000    0.000000
                                           0.000000
                             52.860000     0.334066   -0.157647    0.050064    0.000000    0.000000    0.000000
                                           0.000000
                             25.840000     0.217589   -0.146024    0.048978    0.000000    0.000000    0.000000
                                           0.000000
                             12.170000     0.045728    0.069223   -0.026081    0.000000    0.000000    0.000000
                                           0.000000
                              6.030000    -0.000135    0.430412   -0.178426    0.000000    0.000000    0.000000
                                           0.000000
                              3.012000     0.001639    0.490802   -0.332324    0.000000    0.000000    0.000000
                                           0.000000
                              1.511000    -0.000522    0.158390   -0.132008    1.000000    0.000000    0.000000
                                           0.000000
                              0.660400     0.000181    0.008399    0.440556    0.000000    1.000000    0.000000
                                           0.000000
                              0.292600    -0.000100    0.000768    0.611891    0.000000    0.000000    1.000000
                                           0.000000
                              0.125400     0.000019    0.000227    0.193172    0.000000    0.000000    0.000000
                                           1.000000
    8.1 A1    1  2pz       2548.000000     0.000236   -0.000064    0.000000    0.000000    0.000000    0.000000
    9.1 A1                  603.700000     0.002052   -0.000553    0.000000    0.000000    0.000000    0.000000
   10.1 A1                  195.600000     0.011154   -0.003028    0.000000    0.000000    0.000000    0.000000
   11.1 A1                   74.150000     0.043982   -0.012065    0.000000    0.000000    0.000000    0.000000
   12.1 A1                   30.940000     0.129994   -0.036635    0.000000    0.000000    0.000000    0.000000
   13.1 A1                   13.690000     0.272959   -0.079076    0.000000    0.000000    0.000000    0.000000
                              6.229000     0.383690   -0.117422    0.000000    0.000000    0.000000    0.000000
                              2.878000     0.291870   -0.086094    0.000000    0.000000    0.000000    0.000000
                              1.282000     0.070446    0.140308    1.000000    0.000000    0.000000    0.000000
                              0.564100     0.001288    0.422336    0.000000    1.000000    0.000000    0.000000
                              0.234800     0.001826    0.446363    0.000000    0.000000    1.000000    0.000000
                              0.093120     0.000020    0.166634    0.000000    0.000000    0.000000    1.000000
   14.1 A1    1  3d0          0.250000     1.000000
   15.1 A1    1  3d2+         0.250000     1.000000
   16.1 A1    1  3d0          0.618000     1.000000
   17.1 A1    1  3d2+         0.618000     1.000000
   18.1 A1    1  3d0          1.529000     1.000000
   19.1 A1    1  3d2+         1.529000     1.000000
   20.1 A1    1  3d0          3.781000     1.000000
   21.1 A1    1  3d2+         3.781000     1.000000
   22.1 A1    1  4f0          0.320000     1.000000
   23.1 A1    1  4f2+         0.320000     1.000000
   24.1 A1    1  4f0          0.656000     1.000000
   25.1 A1    1  4f2+         0.656000     1.000000
   26.1 A1    1  4f0          1.345000     1.000000
   27.1 A1    1  4f2+         1.345000     1.000000
   28.1 A1    1  5g0          0.556000     1.000000
   29.1 A1    1  5g4+         0.556000     1.000000
   30.1 A1    1  5g2+         0.556000     1.000000
   31.1 A1    1  5g0          1.302000     1.000000
   32.1 A1    1  5g4+         1.302000     1.000000
   33.1 A1    1  5g2+         1.302000     1.000000
   34.1 A1    1  6h2+         1.053000     1.000000
   35.1 A1    1  6h4+         1.053000     1.000000
   36.1 A1    1  6h0          1.053000     1.000000
   37.1 A1    2  1s         402.000000     0.000279    0.000000    0.000000    0.000000    0.000000
   38.1 A1                   60.240000     0.002165    0.000000    0.000000    0.000000    0.000000
   39.1 A1                   13.730000     0.011201    0.000000    0.000000    0.000000    0.000000
   40.1 A1                    3.905000     0.044878    0.000000    0.000000    0.000000    0.000000
   41.1 A1                    1.283000     0.142299    1.000000    0.000000    0.000000    0.000000
                              0.465500     0.330979    0.000000    1.000000    0.000000    0.000000
                              0.181100     0.436269    0.000000    0.000000    1.000000    0.000000
                              0.072790     0.176440    0.000000    0.000000    0.000000    1.000000
   42.1 A1    2  2pz          4.516000     1.000000
   43.1 A1    2  2pz          1.712000     1.000000
   44.1 A1    2  2pz          0.649000     1.000000
   45.1 A1    2  2pz          0.246000     1.000000
   46.1 A1    2  3d0          2.950000     1.000000
   47.1 A1    2  3d2+         2.950000     1.000000
   48.1 A1    2  3d0          1.206000     1.000000
   49.1 A1    2  3d2+         1.206000     1.000000
   50.1 A1    2  3d0          0.493000     1.000000
   51.1 A1    2  3d2+         0.493000     1.000000
   52.1 A1    2  4f0          2.506000     1.000000
   53.1 A1    2  4f2+         2.506000     1.000000
   54.1 A1    2  4f0          0.875000     1.000000
   55.1 A1    2  4f2+         0.875000     1.000000
   56.1 A1    2  5g0          2.358000     1.000000
   57.1 A1    2  5g4+         2.358000     1.000000
   58.1 A1    2  5g2+         2.358000     1.000000
    1.2 B1    1  2px       2548.000000     0.000236   -0.000064    0.000000    0.000000    0.000000    0.000000
    2.2 B1                  603.700000     0.002052   -0.000553    0.000000    0.000000    0.000000    0.000000
    3.2 B1                  195.600000     0.011154   -0.003028    0.000000    0.000000    0.000000    0.000000
    4.2 B1                   74.150000     0.043982   -0.012065    0.000000    0.000000    0.000000    0.000000
    5.2 B1                   30.940000     0.129994   -0.036635    0.000000    0.000000    0.000000    0.000000
    6.2 B1                   13.690000     0.272959   -0.079076    0.000000    0.000000    0.000000    0.000000
                              6.229000     0.383690   -0.117422    0.000000    0.000000    0.000000    0.000000
                              2.878000     0.291870   -0.086094    0.000000    0.000000    0.000000    0.000000
                              1.282000     0.070446    0.140308    1.000000    0.000000    0.000000    0.000000
                              0.564100     0.001288    0.422336    0.000000    1.000000    0.000000    0.000000
                              0.234800     0.001826    0.446363    0.000000    0.000000    1.000000    0.000000
                              0.093120     0.000020    0.166634    0.000000    0.000000    0.000000    1.000000
    7.2 B1    1  3d1+         0.250000     1.000000
    8.2 B1    1  3d1+         0.618000     1.000000
    9.2 B1    1  3d1+         1.529000     1.000000
   10.2 B1    1  3d1+         3.781000     1.000000
   11.2 B1    1  4f1+         0.320000     1.000000
   12.2 B1    1  4f3+         0.320000     1.000000
   13.2 B1    1  4f1+         0.656000     1.000000
   14.2 B1    1  4f3+         0.656000     1.000000
   15.2 B1    1  4f1+         1.345000     1.000000
   16.2 B1    1  4f3+         1.345000     1.000000
   17.2 B1    1  5g1+         0.556000     1.000000
   18.2 B1    1  5g3+         0.556000     1.000000
   19.2 B1    1  5g1+         1.302000     1.000000
   20.2 B1    1  5g3+         1.302000     1.000000
   21.2 B1    1  6h1+         1.053000     1.000000
   22.2 B1    1  6h3+         1.053000     1.000000
   23.2 B1    1  6h5+         1.053000     1.000000
   24.2 B1    2  2px          4.516000     1.000000
   25.2 B1    2  2px          1.712000     1.000000
   26.2 B1    2  2px          0.649000     1.000000
   27.2 B1    2  2px          0.246000     1.000000
   28.2 B1    2  3d1+         2.950000     1.000000
   29.2 B1    2  3d1+         1.206000     1.000000
   30.2 B1    2  3d1+         0.493000     1.000000
   31.2 B1    2  4f1+         2.506000     1.000000
   32.2 B1    2  4f3+         2.506000     1.000000
   33.2 B1    2  4f1+         0.875000     1.000000
   34.2 B1    2  4f3+         0.875000     1.000000
   35.2 B1    2  5g1+         2.358000     1.000000
   36.2 B1    2  5g3+         2.358000     1.000000
    1.3 B2    1  2py       2548.000000     0.000236   -0.000064    0.000000    0.000000    0.000000    0.000000
    2.3 B2                  603.700000     0.002052   -0.000553    0.000000    0.000000    0.000000    0.000000
    3.3 B2                  195.600000     0.011154   -0.003028    0.000000    0.000000    0.000000    0.000000
    4.3 B2                   74.150000     0.043982   -0.012065    0.000000    0.000000    0.000000    0.000000
    5.3 B2                   30.940000     0.129994   -0.036635    0.000000    0.000000    0.000000    0.000000
    6.3 B2                   13.690000     0.272959   -0.079076    0.000000    0.000000    0.000000    0.000000
                              6.229000     0.383690   -0.117422    0.000000    0.000000    0.000000    0.000000
                              2.878000     0.291870   -0.086094    0.000000    0.000000    0.000000    0.000000
                              1.282000     0.070446    0.140308    1.000000    0.000000    0.000000    0.000000
                              0.564100     0.001288    0.422336    0.000000    1.000000    0.000000    0.000000
                              0.234800     0.001826    0.446363    0.000000    0.000000    1.000000    0.000000
                              0.093120     0.000020    0.166634    0.000000    0.000000    0.000000    1.000000
    7.3 B2    1  3d1-         0.250000     1.000000
    8.3 B2    1  3d1-         0.618000     1.000000
    9.3 B2    1  3d1-         1.529000     1.000000
   10.3 B2    1  3d1-         3.781000     1.000000
   11.3 B2    1  4f1-         0.320000     1.000000
   12.3 B2    1  4f3-         0.320000     1.000000
   13.3 B2    1  4f1-         0.656000     1.000000
   14.3 B2    1  4f3-         0.656000     1.000000
   15.3 B2    1  4f1-         1.345000     1.000000
   16.3 B2    1  4f3-         1.345000     1.000000
   17.3 B2    1  5g1-         0.556000     1.000000
   18.3 B2    1  5g3-         0.556000     1.000000
   19.3 B2    1  5g1-         1.302000     1.000000
   20.3 B2    1  5g3-         1.302000     1.000000
   21.3 B2    1  6h1-         1.053000     1.000000
   22.3 B2    1  6h3-         1.053000     1.000000
   23.3 B2    1  6h5-         1.053000     1.000000
   24.3 B2    2  2py          4.516000     1.000000
   25.3 B2    2  2py          1.712000     1.000000
   26.3 B2    2  2py          0.649000     1.000000
   27.3 B2    2  2py          0.246000     1.000000
   28.3 B2    2  3d1-         2.950000     1.000000
   29.3 B2    2  3d1-         1.206000     1.000000
   30.3 B2    2  3d1-         0.493000     1.000000
   31.3 B2    2  4f1-         2.506000     1.000000
   32.3 B2    2  4f3-         2.506000     1.000000
   33.3 B2    2  4f1-         0.875000     1.000000
   34.3 B2    2  4f3-         0.875000     1.000000
   35.3 B2    2  5g1-         2.358000     1.000000
   36.3 B2    2  5g3-         2.358000     1.000000
    1.4 A2    1  3d2-         0.250000     1.000000
    2.4 A2    1  3d2-         0.618000     1.000000
    3.4 A2    1  3d2-         1.529000     1.000000
    4.4 A2    1  3d2-         3.781000     1.000000
    5.4 A2    1  4f2-         0.320000     1.000000
    6.4 A2    1  4f2-         0.656000     1.000000
    7.4 A2    1  4f2-         1.345000     1.000000
    8.4 A2    1  5g2-         0.556000     1.000000
    9.4 A2    1  5g4-         0.556000     1.000000
   10.4 A2    1  5g2-         1.302000     1.000000
   11.4 A2    1  5g4-         1.302000     1.000000
   12.4 A2    1  6h4-         1.053000     1.000000
   13.4 A2    1  6h2-         1.053000     1.000000
   14.4 A2    2  3d2-         2.950000     1.000000
   15.4 A2    2  3d2-         1.206000     1.000000
   16.4 A2    2  3d2-         0.493000     1.000000
   17.4 A2    2  4f2-         2.506000     1.000000
   18.4 A2    2  4f2-         0.875000     1.000000
   19.4 A2    2  5g2-         2.358000     1.000000
   20.4 A2    2  5g4-         2.358000     1.000000

 NUCLEAR CHARGE:                   18
 NUMBER OF PRIMITIVE AOS:         234
 NUMBER OF SYMMETRY AOS:          184
 NUMBER OF CONTRACTIONS:          150   (  58A1  +  36B1  +  36B2  +  20A2  )
 NUMBER OF CORE ORBITALS:           5   (   3A1  +   1B1  +   1B2  +   0A2  )
 NUMBER OF VALENCE ORBITALS:        5   (   3A1  +   1B1  +   1B2  +   0A2  )


 NUCLEAR REPULSION ENERGY    7.05687007

 EXTRA SYMMETRY OF AOS IN SYMMETRY 1:   1 1 1 1 1 1 1 1 1 1   1 1 1 1 2 1 2 1 2 1   2 1 2 1 2 1 2 1 3 2   1 3 2 2 3 1 1 1 1 1
                                        1 1 1 1 1 1 2 1 2 1   2 1 2 1 2 1 3 2
 EXTRA SYMMETRY OF AOS IN SYMMETRY 2:   1 1 1 1 1 1 1 1 1 1   1 2 1 2 1 2 1 2 1 2   1 2 3 1 1 1 1 1 1 1   1 2 1 2 1 2
 EXTRA SYMMETRY OF AOS IN SYMMETRY 3:   1 1 1 1 1 1 1 1 1 1   1 2 1 2 1 2 1 2 1 2   1 2 3 1 1 1 1 1 1 1   1 2 1 2 1 2
 EXTRA SYMMETRY OF AOS IN SYMMETRY 4:   1 1 1 1 1 1 1 1 2 1   2 2 1 1 1 1 1 1 1 2

 Eigenvalues of metric

         1 0.584E-05 0.232E-04 0.165E-03 0.539E-03 0.116E-02 0.264E-02 0.461E-02 0.211E-01
         2 0.653E-05 0.366E-02 0.143E-01 0.318E-01 0.522E-01 0.730E-01 0.864E-01 0.927E-01
         3 0.653E-05 0.366E-02 0.143E-01 0.318E-01 0.522E-01 0.730E-01 0.864E-01 0.927E-01
         4 0.657E-01 0.702E-01 0.843E-01 0.146E+00 0.346E+00 0.383E+00 0.388E+00 0.517E+00


 Contracted 2-electron integrals neglected if value below      1.0D-14
 AO integral compression algorithm  1   Integral accuracy      1.0D-14

     113.770 MB (compressed) written to integral file ( 74.3%)


 NUMBER OF SORTED TWO-ELECTRON INTEGRALS:   16525987.     BUFFER LENGTH:  32768
 NUMBER OF SEGMENTS:   2  SEGMENT LENGTH:   15999811      RECORD LENGTH: 524288

 Memory used in sort:      16.56 MW

 SORT1 READ    19165630. AND WROTE    11117043. INTEGRALS IN     33 RECORDS. CPU TIME:     0.35 SEC, REAL TIME:     0.43 SEC
 SORT2 READ    11117043. AND WROTE    16525987. INTEGRALS IN    434 RECORDS. CPU TIME:     0.27 SEC, REAL TIME:     0.35 SEC

 FILE SIZES:   FILE 1:   133.4 MBYTE,  FILE 4:   138.4 MBYTE,   TOTAL:    271.8 MBYTE

 OPERATOR DM      FOR CENTER  0  COORDINATES:    0.000000    0.000000    0.000000


 **********************************************************************************************************************************
 DATASETS  * FILE   NREC   LENGTH (MB)   RECORD NAMES
              1      19      109.98       500      610      700      900      950      970     1000      129      960     1100   
                                          VAR    BASINP    GEOM    SYMINP    ZMAT    AOBASIS   BASIS     P2S    ABASIS      S 
                                         1400     1410     1200     1210     1080     1600     1650     1300     1700   
                                           T        V       H0       H01     AOSYM     SMH    MOLCAS    ERIS     OPER   

 PROGRAMS   *        TOTAL       INT
 CPU TIMES  *         4.02      3.91
 REAL TIME  *         4.61 SEC
 DISK USED  *       272.15 MB      
 **********************************************************************************************************************************

1PROGRAM * MULTI (Direct Multiconfiguration SCF)       Authors: P.J. Knowles, H.-J. Werner (1984)     S.T. Elbert (1988)


 Number of closed-shell orbitals:   5 (   3   1   1   0 )
 Number of active  orbitals:        5 (   3   1   1   0 )
 Number of external orbitals:     140 (  52  34  34  20 )

 State symmetry 1

 Number of electrons:     8    Spin symmetry=Singlet   Space symmetry=2
 Number of states:        1
 Number of CSFs:          3   (6 determinants, 25 intermediate states)

 Orbital guess generated from atomic densities. Full valence occupancy:    6   2   2   0

 EXTRA SYMMETRY OF MOS IN SYMMETRY 1:   1 1 1 1 1 1 1 1 1 2   1 1 1 2 1 2 1 1 2 1   1 1 3 2 2 1 1 1 2 1   2 1 2 1 3 1 2 1 1 3
                                        2 1 2 1 1 2 1 3 2 1   2 1 2 1 1 1 1 1
 EXTRA SYMMETRY OF MOS IN SYMMETRY 2:   1 1 1 1 1 2 1 1 1 1   1 2 2 1 1 2 1 1 1 1   3 2 1 2 1 2 1 1 1 2   2 1 1 1 1 1
 EXTRA SYMMETRY OF MOS IN SYMMETRY 3:   1 1 1 1 1 2 1 1 1 1   1 2 2 1 1 2 1 1 1 1   3 2 1 2 1 2 1 1 1 2   2 1 1 1 1 1
 EXTRA SYMMETRY OF MOS IN SYMMETRY 4:   1 1 1 1 2 1 1 1 1 1   2 1 2 1 1 1 2 1 1 1

 Wavefunction dump at record             2140.2

 Convergence thresholds  0.10E-01 (gradient)  0.10E-08 (energy)  0.10E-02 (step length)

 Number of orbital rotations:      459   (    11 Core/Active    224 Core/Virtual   0 Active/Active    224 Active/Virtual)
 Total number of variables:        465


 ITER. MIC  NCI  NEG     ENERGY(VAR)     ENERGY(PROJ)   ENERGY CHANGE     GRAD(0)  GRAD(ORB)   GRAD(CI)     STEP       TIME

   1   50    7    0    -459.81157333    -459.84566692   -0.03409359    0.22268556 0.00148234 0.00000000  0.33D+00      0.29
   2   40    8    0    -459.82575216    -459.83355997   -0.00780781    0.25380604 0.00025472 0.00000000  0.81D-01      0.50
   3   60    8    0    -459.83370195    -459.83371071   -0.00000876    0.00443087 0.00000054 0.00000000  0.57D-02      0.70
   4   31    5    0    -459.83371072    -459.83371072   -0.00000000    0.00000784 0.00000119 0.00000000  0.84D-05      0.87

 ** WVFN ****  CONVERGENCE REACHED, FINAL GRADIENT:  0.17D-06


 First order charge density matrix for state 1.2 saved on record  2140.2 (density set 1)

 Results for state 1.2
 =====================

 !MCSCF STATE 1.2 Energy             -459.833710719421
 Nuclear energy                         7.05687007
 Kinetic energy                       460.22276978
 One electron energy                 -647.54797906
 Two electron energy                  180.65739827
 Virial ratio                           1.99915463

 !MCSCF STATE 1.2 Dipole moment         0.00000000     0.00000000    -1.25793027
 Dipole moment /Debye                   0.00000000     0.00000000    -3.19713043


 EXTRA SYMMETRY OF MOS IN SYMMETRY 1:   1 1 1 1 1 1 1 1 1 2   1 1 2 1 1 2 1 1 2 1   1 1 3 2 2 1 1 1 2 1   2 1 2 1 3 1 2 1 1 3
                                        2 1 2 1 1 2 1 3 2 1   2 1 2 1 1 1 1 1
 EXTRA SYMMETRY OF MOS IN SYMMETRY 3:   1 1 1 1 1 2 1 1 1 1   1 2 2 1 1 2 1 1 1 1   3 2 2 1 1 2 1 1 1 2   2 1 1 1 1 1

 Natural orbital dump at molpro section  2140.2    (Orbital set 2)


 CI vector
 =========

 22a b 2      -0.7071068
 22b a 2       0.7071068

 TOTAL ENERGIES                      -459.83371072



 **********************************************************************************************************************************
 DATASETS  * FILE   NREC   LENGTH (MB)   RECORD NAMES
              1      20      114.02       500      610      700      900      950      970     1000      129      960     1100   
                                          VAR    BASINP    GEOM    SYMINP    ZMAT    AOBASIS   BASIS     P2S    ABASIS      S 
                                         1400     1410     1200     1210     1080     1600     1650     1300     1700     1380   
                                           T        V       H0       H01     AOSYM     SMH    MOLCAS    ERIS     OPER     JKOP   

              2       4        2.93       700     1000      520     2140   
                                         GEOM     BASIS   MCVARS    MCSCF   

 PROGRAMS   *        TOTAL     MULTI       INT
 CPU TIMES  *         5.09      1.08      3.91
 REAL TIME  *         5.86 SEC
 DISK USED  *       272.15 MB      
 **********************************************************************************************************************************

1PROGRAM * CI (Multireference internally contracted CI)     Authors: H.-J. Werner, P.J. Knowles, 1987


 Convergence thresholds:  THRVAR = 1.00D-08  THRDEN = 1.00D-09

 Number of optimized states:  1  Roots:   1
 Number of reference states:  1  Roots:   1

 Reference symmetry:                   2   Singlet 
 Number of electrons:                 18
 Maximum number of shells:             4
 Maximum number of spin couplings:     5

 Reference space:        3 conf        3 CSFs
 N elec internal:       15 conf       15 CSFs
 N-1 el internal:       30 conf       40 CSFs
 N-2 el internal:       25 conf       59 CSFs

 Number of electrons in valence space:                      8
 Maximum number of open shell orbitals in reference space:  2
 Maximum number of open shell orbitals in internal spaces:  6


 Number of core orbitals:           5 (   3   1   1   0 )
 Number of active  orbitals:        5 (   3   1   1   0 )
 Number of external orbitals:     140 (  52  34  34  20 )

 Molecular orbitals read from record     2140.2  Type=MCSCF/NATURAL (state 1.2)

 Coulomb and exchange operators available. No transformation done.

 Number of p-space configurations:   1

 Reference wavefunction optimized for reference space (refopt=1)

 State     Reference Energy 
   1        -459.83371072

 Number of blocks in overlap matrix:    10   Smallest eigenvalue:  0.10D+01
 Number of N-2 electron functions:      22
 Number of N-1 electron functions:      40

 Number of internal configurations:                    3
 Number of singly external configurations:          1400
 Number of doubly external configurations:         55902
 Total number of contracted configurations:        57305
 Total number of uncontracted configurations:     150233

 Diagonal Coupling coefficients finished.               Storage:    3054 words, CPU-Time:      0.00 seconds.
 Energy denominators for pairs finished in 1 passes.    Storage:   59447 words, CPU-time:      0.00 seconds.

  ITER. STATE  ROOT     SQ.NORM     CORR.ENERGY   TOTAL ENERGY   ENERGY CHANGE       DEN1      VAR(S)    VAR(P)      TIME
    1     1     1     1.00000000     0.00000000  -459.83371072    -0.00000000    -0.24290508  0.26D-01  0.72D-01     0.07
    2     1     1     1.07873092    -0.21668737  -460.05039809    -0.21668737    -0.00489026  0.18D-02  0.92D-03     0.28
    3     1     1     1.08082807    -0.22159323  -460.05530395    -0.00490586    -0.00027320  0.97D-04  0.52D-04     0.50
    4     1     1     1.08246513    -0.22188210  -460.05559282    -0.00028887    -0.00003208  0.23D-04  0.43D-05     0.72
    5     1     1     1.08339104    -0.22192384  -460.05563456    -0.00004174    -0.00000497  0.24D-05  0.76D-06     0.94
    6     1     1     1.08357885    -0.22193035  -460.05564107    -0.00000651    -0.00000044  0.19D-06  0.80D-07     1.15
    7     1     1     1.08357540    -0.22193089  -460.05564161    -0.00000054    -0.00000004  0.12D-07  0.84D-08     1.36
    8     1     1     1.08358163    -0.22193094  -460.05564166    -0.00000005    -0.00000000  0.21D-08  0.56D-09     1.58
    9     1     1     1.08358306    -0.22193094  -460.05564166    -0.00000000    -0.00000000  0.17D-09  0.79D-10     1.79
   10     1     1     1.08358342    -0.22193095  -460.05564166    -0.00000000    -0.00000000  0.23D-10  0.68D-11     2.01


 =====================================
 Analysis of CPU times by interactions
 =====================================

       I      S      P

 I   0.0%
 S   0.0%   1.0%
 P   0.0%   0.0%   8.0%

 Initialization:   3.5%
 Other:           87.6%

 Total CPU:        2.0 seconds
 =====================================



 Reference coefficients greater than 0.0500000
 =============================================
 22/\2           0.9606288



 RESULTS FOR STATE 1.2
 =====================

 Coefficient of reference function:   C(0) = 0.96062878 (fixed)   0.96065804 (relaxed)

 Energy contributions of configuration classes

 CLASS          SQ.NORM        ECORR1        ECORR2
 +++++++++++++++++++++++++++++++++++++++++++++++++++
 Internals    0.00006092    0.00000000   -0.00001248
 Singles      0.02248448   -0.03650543   -0.03829240
 Pairs        0.06110403   -0.18542552   -0.18362607
 Total        1.08364944   -0.22193095   -0.22193095
 +++++++++++++++++++++++++++++++++++++++++++++++++++


 Reference energy                    -459.83371072
 Nuclear energy                         7.05687007
 Kinetic energy                       460.40448160
 One electron energy                 -647.61426805
 Two electron energy                  180.50175632
 Virial quotient                       -0.99924232
 Correlation energy                    -0.22193095
 !MRCI STATE 1.2 Energy              -460.055641664897

 Properties without orbital relaxation:

 !MRCI STATE 1.2 Dipole moment          0.00000000     0.00000000    -1.11797154
 Dipole moment /Debye                   0.00000000     0.00000000    -2.84141410

 Cluster corrected energies          -460.07420606 (Davidson, fixed reference)
 Cluster corrected energies          -460.07419141 (Davidson, relaxed reference)

 Cluster corrected energies          -460.07015202 (Pople, fixed reference)
 Cluster corrected energies          -460.07014010 (Pople, relaxed reference)


 Density matrix saved on record      6000.2 (density set 1)


 **********************************************************************************************************************************
 DATASETS  * FILE   NREC   LENGTH (MB)   RECORD NAMES
              1      20      114.02       500      610      700      900      950      970     1000      129      960     1100   
                                          VAR    BASINP    GEOM    SYMINP    ZMAT    AOBASIS   BASIS     P2S    ABASIS      S 
                                         1400     1410     1200     1210     1080     1600     1650     1300     1700     1380   
                                           T        V       H0       H01     AOSYM     SMH    MOLCAS    ERIS     OPER     JKOP   

              2       5        5.47       700     1000      520     2140     6000   
                                         GEOM     BASIS   MCVARS    MCSCF    MRCI   

 PROGRAMS   *        TOTAL      MRCI     MULTI       INT
 CPU TIMES  *         7.12      2.03      1.08      3.91
 REAL TIME  *         8.08 SEC
 DISK USED  *       272.15 MB      
 **********************************************************************************************************************************

 Dump information in style XYZ to clh.xyz                                                                         


 **********************************************************************************************************************************


 PROGRAM * MATROP

 
 Density D read from record              6000.2  Type=MRCI/CHARGE (state 1.2)

 MATRIX D               

 SYMMETRY BLOCK 1.1
 
    1.99992685  -0.00013232  -0.00073588  -0.00006180   0.00037173   0.00008163  -0.00054677   0.00197467   0.00607575  -0.00110397
   -0.00262005  -0.00316906  -0.00136704  -0.00011876   0.00000640   0.00009875   0.00001513  -0.00000398  -0.00000323   0.00000703
    0.00000163  -0.00006188   0.00000059   0.00003764   0.00000151  -0.00000134   0.00000158  -0.00001020  -0.00000003  -0.00000036
    0.00001061  -0.00000002  -0.00000029   0.00000017   0.00000000   0.00000127   0.00002536   0.00001394   0.00005274   0.00041151
    0.00066910   0.00000342  -0.00000867   0.00011195  -0.00007057   0.00000435   0.00000005  -0.00002723  -0.00000011  -0.00005460
    0.00000045  -0.00000210  -0.00000004   0.00002631   0.00000012   0.00000071   0.00000000   0.00000002
 
   -0.00013232   2.00287438   0.00894838   0.00230787  -0.00025556  -0.00896642   0.00602535  -0.00410603  -0.02138237   0.00286519
    0.00612006   0.00851992   0.00711852  -0.00038284   0.00000764  -0.00072215   0.00015519  -0.00026270  -0.00008088  -0.00054634
    0.00000795   0.00000964  -0.00004320   0.00008375  -0.00002885  -0.00001338  -0.00000821  -0.00000936   0.00000014  -0.00000358
    0.00005567  -0.00000017  -0.00000369   0.00000364   0.00000001   0.00002391  -0.01143483   0.00015842   0.00018191  -0.00026912
   -0.00730298   0.00000091  -0.00000596   0.00019982   0.00066461   0.00001322  -0.00000058   0.00000021   0.00000197  -0.00014192
   -0.00000698  -0.00001616   0.00000005   0.00003671   0.00000001   0.00000610   0.00000000   0.00000001
 
   -0.00073588   0.00894838   2.11522208   0.00147399   0.04871521  -0.06960537   0.24279010   0.00134663  -0.05508031   0.00071320
   -0.01057190   0.05865779   0.16750631   0.00797661  -0.00627559  -0.02005395   0.00341920  -0.00452184  -0.00186353  -0.00338526
   -0.00006895   0.01123726  -0.00165613  -0.00090927  -0.00106395   0.00132032  -0.00076054   0.00233930   0.00001802  -0.00010806
   -0.00018503   0.00000940   0.00003399   0.00012485  -0.00000025   0.00039190   0.15748251  -0.00440495  -0.06933595  -0.27720863
   -0.43560626  -0.00221665  -0.00594464  -0.03086455   0.02560628   0.00032437  -0.00004337   0.00407218   0.00015513   0.00589316
   -0.00030563  -0.00008616   0.00001894  -0.00210093  -0.00011573   0.00006947  -0.00000005   0.00000164
 
   -0.00006180   0.00230787   0.00147399   0.00529222  -0.00516431  -0.00863204  -0.00741835   0.00018460  -0.00760668   0.00027500
    0.00077716  -0.00081472  -0.00275304  -0.00064439   0.00007130   0.00016355   0.00054258   0.00010759   0.00017921   0.00002548
    0.00001536  -0.00040093   0.00002910  -0.00003836   0.00003547  -0.00002852   0.00002594  -0.00008821   0.00000010  -0.00000469
    0.00001231  -0.00000036  -0.00000971   0.00000849  -0.00000000  -0.00001693  -0.00063309  -0.00005248   0.00154740   0.00441864
    0.00788703   0.00003241   0.00005335   0.00023813  -0.00080408  -0.00000252   0.00000101  -0.00003035  -0.00000201  -0.00009581
    0.00000423  -0.00000786  -0.00000121   0.00006388   0.00000537  -0.00000135   0.00000000  -0.00000006
 
    0.00037173  -0.00025556   0.04871521  -0.00516431   0.01748181  -0.01201732   0.03838233  -0.00160880   0.02204700   0.00099178
   -0.00107847   0.01106124   0.02525347   0.00091957   0.00009208  -0.00394640  -0.00117477  -0.00097103  -0.00087912  -0.00057984
   -0.00001435   0.00157255  -0.00017340  -0.00055302  -0.00015645   0.00012510  -0.00006133   0.00007058  -0.00000007   0.00001102
   -0.00012463   0.00000051   0.00003089  -0.00000811  -0.00000001   0.00000116  -0.01432974   0.00037161  -0.00354509  -0.02015666
   -0.05595827  -0.00013077  -0.00011443  -0.00230085   0.00412116  -0.00000933  -0.00000532   0.00028861   0.00001781   0.00043811
   -0.00001071   0.00000230   0.00000526  -0.00019857  -0.00003141  -0.00000132  -0.00000000   0.00000104
 
    0.00008163  -0.00896642  -0.06960537  -0.00863204  -0.01201732   0.05648468  -0.07562428   0.00623006  -0.04578404  -0.00542985
   -0.00274466  -0.02690642  -0.05162907  -0.00096255   0.00022755   0.00805823   0.00054937   0.00106069   0.00112149   0.00096154
    0.00002366  -0.00199873   0.00009936   0.00192288  -0.00011276  -0.00019165  -0.00014997   0.00025585  -0.00000178  -0.00002475
    0.00027795   0.00000002  -0.00004085  -0.00002223   0.00000015   0.00008285   0.02035985  -0.00023651   0.00121584   0.03521443
    0.11361570   0.00023559   0.00014916   0.00747474  -0.00408506   0.00005081   0.00000778  -0.00088581  -0.00003309  -0.00149867
    0.00001929   0.00005144  -0.00000550   0.00036087   0.00004343   0.00000162  -0.00000001  -0.00000284
 
   -0.00054677   0.00602535   0.24279010  -0.00741835   0.03838233  -0.07562428   1.04316217   0.01377230   0.33869607   0.00664342
   -0.04098384   0.22903383   0.53658554   0.03766478  -0.01259398  -0.07316423  -0.01059732  -0.02148495  -0.00518388  -0.01270743
   -0.00135860   0.03334465  -0.00293383  -0.01029374  -0.00175834  -0.00129553  -0.00125384   0.00361813   0.00004079   0.00033563
   -0.00293756   0.00001328   0.00017686  -0.00001334  -0.00000099   0.00014386  -0.62889951   0.01260213  -0.07542917  -0.35810835
   -1.15502531  -0.00187311   0.00063574  -0.02452831   0.08899229  -0.00033952  -0.00008527   0.00215876   0.00024126   0.00414098
   -0.00097113   0.00027818   0.00003571  -0.00298834  -0.00008762  -0.00002973   0.00000017  -0.00000814
 
    0.00197467  -0.00410603   0.00134663   0.00018460  -0.00160880   0.00623006   0.01377230   2.02940204   0.06729332  -0.01420997
   -0.02577068  -0.02617993  -0.00609170   0.00260535  -0.00011179   0.00132909  -0.00020353  -0.00083982  -0.00006146  -0.00014325
   -0.00001116   0.00092049  -0.00006781   0.00148839  -0.00005865  -0.00029636  -0.00010912   0.00066467   0.00000037   0.00000651
    0.00020370   0.00000020   0.00000543  -0.00000066  -0.00000015   0.00026498  -0.01089171   0.00069779  -0.00778347  -0.00788053
   -0.01065952  -0.00010728  -0.00004502   0.00323199   0.00382964   0.00002501  -0.00000080  -0.00059155   0.00000084  -0.00091936
   -0.00001148   0.00006046   0.00000051   0.00015280   0.00000028   0.00010050   0.00000000  -0.00000014
 
    0.00607575  -0.02138237  -0.05508031  -0.00760668   0.02204700  -0.04578404   0.33869607   0.06729332   1.92083429  -0.02861735
   -0.05066564  -0.11164602   0.08667926   0.04172151  -0.00709670   0.03329241  -0.00814665   0.01146204  -0.00355318   0.00595641
   -0.00100235   0.01648856   0.00257306   0.00621866   0.00324310   0.00387074   0.00093780   0.00404976   0.00001047   0.00107130
    0.00104073   0.00000269   0.00046673   0.00010694  -0.00000430   0.00162108   0.82965324  -0.00394612  -0.13186285  -0.44128893
   -0.73165380  -0.00371183  -0.00919254  -0.04933039   0.01813652   0.00099408  -0.00001076   0.00327052   0.00015499   0.00777633
    0.00031871  -0.00047626   0.00000401  -0.00197859  -0.00024073   0.00047726  -0.00000002   0.00002849
 
   -0.00110397   0.00286519   0.00071320   0.00027500   0.00099178  -0.00542985   0.00664342  -0.01420997  -0.02861735   0.00761434
    0.00873352   0.01265322   0.00922896  -0.00103102  -0.00008120  -0.00212934  -0.00010890   0.00021042  -0.00004321  -0.00013069
   -0.00002113  -0.00007128  -0.00000699  -0.00089170   0.00006171   0.00005941   0.00005603  -0.00030559   0.00000029   0.00000480
   -0.00012297   0.00000002   0.00000059  -0.00000086   0.00000014  -0.00009590  -0.00597448  -0.00042677   0.00370776   0.00012653
   -0.00882176  -0.00000596   0.00016490  -0.00241667  -0.00070056  -0.00006013  -0.00000093   0.00044266   0.00000394   0.00072435
   -0.00000711  -0.00002470  -0.00000002  -0.00018635  -0.00000212  -0.00000176   0.00000000   0.00000062
 
   -0.00262005   0.00612006  -0.01057190   0.00077716  -0.00107847  -0.00274466  -0.04098384  -0.02577068  -0.05066564   0.00873352
    0.02422549   0.01017256  -0.01377562  -0.00250887   0.00045550   0.00263658   0.00052122   0.00145386   0.00012578   0.00052033
    0.00005649  -0.00163933   0.00011848  -0.00007106  -0.00010885   0.00014697   0.00003948  -0.00040819  -0.00000075  -0.00000808
    0.00007712  -0.00000042  -0.00001814   0.00000150   0.00000002  -0.00008302   0.02992479  -0.00098828   0.00496872   0.01358839
    0.04255735   0.00004872   0.00001392  -0.00082601  -0.00458943  -0.00001504   0.00000387   0.00022181  -0.00001114   0.00032709
    0.00004487  -0.00004038  -0.00000082   0.00001517   0.00000270   0.00000110  -0.00000001  -0.00000117
 
   -0.00316906   0.00851992   0.05865779  -0.00081472   0.01106124  -0.02690642   0.22903383  -0.02617993  -0.11164602   0.01265322
    0.01017256   0.09462192   0.13782610   0.00494989  -0.00260202  -0.02207451  -0.00189398  -0.00506315  -0.00096449  -0.00359506
   -0.00025938   0.00667143  -0.00078605  -0.00449010  -0.00049845  -0.00055016  -0.00018946   0.00009869   0.00000843  -0.00001333
   -0.00098557   0.00000280   0.00000447  -0.00001538   0.00000000  -0.00026618  -0.21083796   0.00213352  -0.00374701  -0.05336527
   -0.23386945  -0.00021199   0.00114336  -0.00649845   0.01749349  -0.00025774  -0.00002066   0.00096053   0.00005284   0.00187433
   -0.00028293   0.00006728   0.00000644  -0.00089187   0.00000241  -0.00004173   0.00000005  -0.00000391
 
   -0.00136704   0.00711852   0.16750631  -0.00275304   0.02525347  -0.05162907   0.53658554  -0.00609170   0.08667926   0.00922896
   -0.01377562   0.13782610   0.29250157   0.01541259  -0.00619610  -0.04253833  -0.00514934  -0.01155457  -0.00274016  -0.00711330
   -0.00065955   0.01701693  -0.00171583  -0.00651330  -0.00116281  -0.00052241  -0.00069354   0.00130155   0.00001861   0.00012770
   -0.00169273   0.00000610   0.00007434  -0.00001193   0.00000018  -0.00009756  -0.34816216   0.00627805  -0.03060182  -0.17623822
   -0.59805049  -0.00089032   0.00074235  -0.01457154   0.04628099  -0.00027596  -0.00004579   0.00161805   0.00012580   0.00259290
   -0.00051750   0.00012451   0.00002022  -0.00166069  -0.00004621  -0.00003764   0.00000010  -0.00000528
 
   -0.00011876  -0.00038284   0.00797661  -0.00064439   0.00091957  -0.00096255   0.03766478   0.00260535   0.04172151  -0.00103102
   -0.00250887   0.00494989   0.01541259   0.00513006  -0.00030766   0.00221747  -0.00032400   0.00023114  -0.00019741   0.00000561
   -0.00004202   0.00132828   0.00009393   0.00006114   0.00016508  -0.00011913   0.00003202   0.00044985   0.00000078  -0.00001287
   -0.00002516   0.00000051  -0.00000579  -0.00000403  -0.00000068   0.00008604  -0.00564700   0.00031489  -0.00730253  -0.01940286
   -0.04461045  -0.00014025  -0.00020595  -0.00082747   0.00239689   0.00002936  -0.00000329  -0.00005193   0.00001325   0.00026010
   -0.00004424   0.00001246   0.00000011  -0.00013674  -0.00000178   0.00001884   0.00000000   0.00000003
 
    0.00000640   0.00000764  -0.00627559   0.00007130   0.00009208   0.00022755  -0.01259398  -0.00011179  -0.00709670  -0.00008120
    0.00045550  -0.00260202  -0.00619610  -0.00030766   0.00211125   0.00090885   0.00274128   0.00019919   0.00070295   0.00014532
    0.00021654  -0.00034899   0.00002671   0.00015653   0.00001544   0.00004015   0.00001870  -0.00008236  -0.00006805   0.00002535
    0.00002093  -0.00002596  -0.00000123   0.00000193  -0.00000105  -0.00000315   0.00431964  -0.00011717   0.00121265   0.00530566
    0.01440266   0.00003031   0.00002285   0.00038141  -0.00104354   0.00000170   0.00000308  -0.00003642   0.00000177  -0.00005694
    0.00005439  -0.00000182  -0.00000132   0.00003919  -0.00000763  -0.00000059  -0.00000006   0.00000085
 
    0.00009875  -0.00072215  -0.02005395   0.00016355  -0.00394640   0.00805823  -0.07316423   0.00132909   0.03329241  -0.00212934
    0.00263658  -0.02207451  -0.04253833   0.00221747   0.00090885   0.01487994   0.00120939   0.00384338   0.00044647   0.00166348
    0.00010910  -0.00203394   0.00043243   0.00171687   0.00035408   0.00015733   0.00014472   0.00023309  -0.00000380  -0.00007787
    0.00038940  -0.00000138  -0.00006235  -0.00000053  -0.00000056   0.00015257   0.08332040  -0.00090574  -0.00215585   0.01146716
    0.07112113  -0.00000334  -0.00051245   0.00159606  -0.00652345   0.00010054   0.00000671  -0.00029174  -0.00001523  -0.00028000
    0.00008118  -0.00003371  -0.00000283   0.00017114   0.00000391   0.00004364  -0.00000001   0.00000017
 
    0.00001513   0.00015519   0.00341920   0.00054258  -0.00117477   0.00054937  -0.01059732  -0.00020353  -0.00814665  -0.00010890
    0.00052122  -0.00189398  -0.00514934  -0.00032400   0.00274128   0.00120939   0.00603168   0.00030100   0.00173258   0.00014570
    0.00032463  -0.00024097  -0.00000295   0.00022514   0.00004471   0.00005934   0.00001006  -0.00008000  -0.00012820   0.00003333
    0.00000973  -0.00009013   0.00001928   0.00001383   0.00000013   0.00000687   0.00560250  -0.00013739   0.00073064   0.00379116
    0.01208505   0.00001882  -0.00001530   0.00027103  -0.00092756   0.00000473   0.00000040  -0.00002619   0.00001955  -0.00005253
    0.00000860  -0.00000304  -0.00000465   0.00003508  -0.00000223   0.00000056  -0.00000017   0.00000214
 
   -0.00000398  -0.00026270  -0.00452184   0.00010759  -0.00097103   0.00106069  -0.02148495  -0.00083982   0.01146204   0.00021042
    0.00145386  -0.00506315  -0.01155457   0.00023114   0.00019919   0.00384338   0.00030100   0.00154384   0.00019918   0.00046485
    0.00001780  -0.00064099   0.00012992   0.00029150   0.00012612   0.00010064   0.00006883  -0.00001295  -0.00000067  -0.00000244
    0.00008791  -0.00000023  -0.00001252   0.00000200  -0.00000009   0.00002315   0.02917531  -0.00044798   0.00020590   0.00242039
    0.01862508  -0.00001312  -0.00014999  -0.00046167  -0.00231246   0.00001656   0.00000186   0.00006657  -0.00000333   0.00017226
    0.00002654  -0.00002072  -0.00000113  -0.00001038  -0.00000023   0.00001569  -0.00000000   0.00000084
 
   -0.00000323  -0.00008088  -0.00186353   0.00017921  -0.00087912   0.00112149  -0.00518388  -0.00006146  -0.00355318  -0.00004321
    0.00012578  -0.00096449  -0.00274016  -0.00019741   0.00070295   0.00044647   0.00173258   0.00019918   0.00081658   0.00005740
    0.00004824  -0.00012240   0.00001236   0.00007336   0.00000979   0.00001223   0.00001048  -0.00002286  -0.00000969   0.00000551
    0.00000264  -0.00002709   0.00000242   0.00000405   0.00000054  -0.00000043   0.00241353  -0.00007635   0.00045428   0.00212514
    0.00640974   0.00001193   0.00000916   0.00013526  -0.00046185  -0.00000118   0.00000155  -0.00000378  -0.00000034  -0.00000728
    0.00001463  -0.00000126  -0.00000179   0.00000601   0.00000369   0.00000106  -0.00000001   0.00000028
 
    0.00000703  -0.00054634  -0.00338526   0.00002548  -0.00057984   0.00096154  -0.01270743  -0.00014325   0.00595641  -0.00013069
    0.00052033  -0.00359506  -0.00711330   0.00000561   0.00014532   0.00166348   0.00014570   0.00046485   0.00005740   0.00027169
    0.00001794  -0.00039339   0.00007317   0.00018086   0.00006563   0.00003632   0.00003224  -0.00001641  -0.00000048  -0.00000546
    0.00004968  -0.00000015  -0.00000112   0.00000050  -0.00000006   0.00000972   0.01504980  -0.00022108   0.00022038   0.00212497
    0.01195642  -0.00000030  -0.00007640  -0.00006632  -0.00130989   0.00001102   0.00000112   0.00000008  -0.00000222   0.00003263
    0.00001468  -0.00000721  -0.00000052   0.00002066  -0.00000004   0.00000420  -0.00000000   0.00000023
 
    0.00000163   0.00000795  -0.00006895   0.00001536  -0.00001435   0.00002366  -0.00135860  -0.00001116  -0.00100235  -0.00002113
    0.00005649  -0.00025938  -0.00065955  -0.00004202   0.00021654   0.00010910   0.00032463   0.00001780   0.00004824   0.00001794
    0.00003240  -0.00003840  -0.00000054   0.00002163   0.00000192   0.00000530   0.00000029  -0.00000978  -0.00001043   0.00000088
    0.00000318  -0.00000179  -0.00000034   0.00000007  -0.00000012  -0.00000015   0.00053045  -0.00001171   0.00011813   0.00054871
    0.00157080   0.00000314   0.00000005   0.00004656  -0.00011209   0.00000062  -0.00000001  -0.00000545   0.00000130  -0.00001002
    0.00000154  -0.00000015  -0.00000009   0.00000590  -0.00000101  -0.00000022  -0.00000001   0.00000010
 
   -0.00006188   0.00000964   0.01123726  -0.00040093   0.00157255  -0.00199873   0.03334465   0.00092049   0.01648856  -0.00007128
   -0.00163933   0.00667143   0.01701693   0.00132828  -0.00034899  -0.00203394  -0.00024097  -0.00064099  -0.00012240  -0.00039339
   -0.00003840   0.00140984  -0.00006027  -0.00005684  -0.00003186   0.00003821  -0.00004673   0.00015429   0.00000021   0.00000271
   -0.00008401   0.00000004  -0.00000193  -0.00000334  -0.00000019   0.00001978  -0.01656313   0.00042698  -0.00333271  -0.01314540
   -0.03827755  -0.00007205  -0.00003473  -0.00072740   0.00308019  -0.00000373  -0.00000298   0.00006205   0.00000870   0.00009509
   -0.00004347   0.00000769   0.00000073  -0.00009935   0.00000111   0.00000245   0.00000000  -0.00000067
 
    0.00000059  -0.00004320  -0.00165613   0.00002910  -0.00017340   0.00009936  -0.00293383  -0.00006781   0.00257306  -0.00000699
    0.00011848  -0.00078605  -0.00171583   0.00009393   0.00002671   0.00043243  -0.00000295   0.00012992   0.00001236   0.00007317
   -0.00000054  -0.00006027   0.00020340   0.00006446   0.00016895   0.00000485   0.00006138   0.00001163  -0.00000194  -0.00001062
    0.00001196  -0.00000079  -0.00000441   0.00000283  -0.00000274   0.00000083   0.00393440  -0.00008767  -0.00009700   0.00045075
    0.00269758  -0.00000231  -0.00002193  -0.00004093  -0.00042419   0.00000316   0.00000108  -0.00000251   0.00000093   0.00001869
    0.00002806  -0.00000164  -0.00000009   0.00000396  -0.00000599   0.00000118  -0.00000006   0.00000049
 
    0.00003764   0.00008375  -0.00090927  -0.00003836  -0.00055302   0.00192288  -0.01029374   0.00148839   0.00621866  -0.00089170
   -0.00007106  -0.00449010  -0.00651330   0.00006114   0.00015653   0.00171687   0.00022514   0.00029150   0.00007336   0.00018086
    0.00002163  -0.00005684   0.00006446   0.00090516   0.00011118   0.00018853   0.00001986   0.00009369  -0.00000037  -0.00000201
    0.00008821  -0.00000013  -0.00000730  -0.00000930  -0.00000016   0.00004756   0.01050128  -0.00000555  -0.00097605   0.00149497
    0.01055599   0.00000366  -0.00010830   0.00074039  -0.00049192   0.00002393   0.00000120  -0.00010098  -0.00000318  -0.00021976
    0.00000658  -0.00000413  -0.00000073   0.00005355   0.00000368   0.00000786  -0.00000001  -0.00000025
 
    0.00000151  -0.00002885  -0.00106395   0.00003547  -0.00015645  -0.00011276  -0.00175834  -0.00005865   0.00324310   0.00006171
   -0.00010885  -0.00049845  -0.00116281   0.00016508   0.00001544   0.00035408   0.00004471   0.00012612   0.00000979   0.00006563
    0.00000192  -0.00003186   0.00016895   0.00011118   0.00051477   0.00003103   0.00016877   0.00000961   0.00000079   0.00001520
    0.00000829   0.00000018   0.00001006   0.00001111  -0.00001522  -0.00000117   0.00373673  -0.00007866  -0.00016828  -0.00009745
    0.00131258  -0.00000558  -0.00002672  -0.00013024  -0.00039092   0.00000259  -0.00000018   0.00000913   0.00000761   0.00004973
   -0.00000812  -0.00000211  -0.00000198  -0.00000627  -0.00000154   0.00000200  -0.00000021   0.00000188
 
   -0.00000134  -0.00001338   0.00132032  -0.00002852   0.00012510  -0.00019165  -0.00129553  -0.00029636   0.00387074   0.00005941
    0.00014697  -0.00055016  -0.00052241  -0.00011913   0.00004015   0.00015733   0.00005934   0.00010064   0.00001223   0.00003632
    0.00000530   0.00003821   0.00000485   0.00018853   0.00003103   0.00020470   0.00003602  -0.00001064  -0.00000015  -0.00000321
    0.00002052  -0.00000007   0.00000046  -0.00000255   0.00000000   0.00000473   0.00469587  -0.00003948  -0.00006913  -0.00080966
   -0.00016527  -0.00000885  -0.00004398  -0.00024321  -0.00009964   0.00000294  -0.00000010   0.00004166   0.00000091   0.00003645
    0.00000285  -0.00000626  -0.00000006  -0.00000957  -0.00000162   0.00000353  -0.00000000   0.00000036
 
    0.00000158  -0.00000821  -0.00076054   0.00002594  -0.00006133  -0.00014997  -0.00125384  -0.00010912   0.00093780   0.00005603
    0.00003948  -0.00018946  -0.00069354   0.00003202   0.00001870   0.00014472   0.00001006   0.00006883   0.00001048   0.00003224
    0.00000029  -0.00004673   0.00006138   0.00001986   0.00016877   0.00003602   0.00016088  -0.00000901   0.00000102   0.00000180
    0.00000298   0.00000076   0.00000453   0.00000280  -0.00000393  -0.00000257   0.00187537  -0.00005144   0.00006490   0.00019461
    0.00109081  -0.00000152  -0.00000883  -0.00010346  -0.00025505   0.00000015   0.00000035   0.00001219   0.00000127   0.00003889
    0.00000557  -0.00000143  -0.00000080  -0.00000503  -0.00000104   0.00000076   0.00000002   0.00000089
 
   -0.00001020  -0.00000936   0.00233930  -0.00008821   0.00007058   0.00025585   0.00361813   0.00066467   0.00404976  -0.00030559
   -0.00040819   0.00009869   0.00130155   0.00044985  -0.00008236   0.00023309  -0.00008000  -0.00001295  -0.00002286  -0.00001641
   -0.00000978   0.00015429   0.00001163   0.00009369   0.00000961  -0.00001064  -0.00000901   0.00017997   0.00000073   0.00003566
    0.00004862   0.00000027   0.00001115   0.00000168  -0.00000007   0.00002117  -0.00098716   0.00007189  -0.00099931  -0.00197937
   -0.00399933  -0.00001216  -0.00004047   0.00010901   0.00037823   0.00000657   0.00000040  -0.00002106  -0.00000105  -0.00003722
   -0.00000027   0.00000100  -0.00000002  -0.00000778   0.00000086   0.00000315  -0.00000000  -0.00000027
 
   -0.00000003   0.00000014   0.00001802   0.00000010  -0.00000007  -0.00000178   0.00004079   0.00000037   0.00001047   0.00000029
   -0.00000075   0.00000843   0.00001861   0.00000078  -0.00006805  -0.00000380  -0.00012820  -0.00000067  -0.00000969  -0.00000048
   -0.00001043   0.00000021  -0.00000194  -0.00000037   0.00000079  -0.00000015   0.00000102   0.00000073   0.00007883   0.00001414
    0.00000015   0.00003157   0.00000528  -0.00000060  -0.00000017   0.00000000  -0.00002186   0.00000056  -0.00000258  -0.00001457
   -0.00004299  -0.00000007   0.00000003  -0.00000039   0.00000390  -0.00000000   0.00000027   0.00000004  -0.00000103   0.00000005
    0.00000171   0.00000001  -0.00000015  -0.00000011   0.00000078   0.00000000   0.00000009   0.00000006
 
   -0.00000036  -0.00000358  -0.00010806  -0.00000469   0.00001102  -0.00002475   0.00033563   0.00000651   0.00107130   0.00000480
   -0.00000808  -0.00001333   0.00012770  -0.00001287   0.00002535  -0.00007787   0.00003333  -0.00000244   0.00000551  -0.00000546
    0.00000088   0.00000271  -0.00001062  -0.00000201   0.00001520  -0.00000321   0.00000180   0.00003566   0.00001414   0.00010956
    0.00001267   0.00000494   0.00004093   0.00000224  -0.00000173   0.00000262   0.00028280  -0.00000374  -0.00006056  -0.00027279
   -0.00055327  -0.00000204  -0.00000483  -0.00003246   0.00002078   0.00000031   0.00000076   0.00000400   0.00000040   0.00000374
    0.00000292  -0.00000032  -0.00000104  -0.00000193   0.00000018   0.00000008  -0.00000015   0.00000100
 
    0.00001061   0.00005567  -0.00018503   0.00001231  -0.00012463   0.00027795  -0.00293756   0.00020370   0.00104073  -0.00012297
    0.00007712  -0.00098557  -0.00169273  -0.00002516   0.00002093   0.00038940   0.00000973   0.00008791   0.00000264   0.00004968
    0.00000318  -0.00008401   0.00001196   0.00008821   0.00000829   0.00002052   0.00000298   0.00004862   0.00000015   0.00001267
    0.00008141   0.00000005   0.00001427   0.00000172   0.00000000   0.00001211   0.00303488  -0.00001001  -0.00007063   0.00051341
    0.00293409   0.00000160  -0.00003277   0.00009863  -0.00022095   0.00000579   0.00000045  -0.00001155  -0.00000084  -0.00003017
    0.00000612  -0.00000222  -0.00000011   0.00001048  -0.00000046   0.00000213  -0.00000000  -0.00000002
 
   -0.00000002  -0.00000017   0.00000940  -0.00000036   0.00000051   0.00000002   0.00001328   0.00000020   0.00000269   0.00000002
   -0.00000042   0.00000280   0.00000610   0.00000051  -0.00002596  -0.00000138  -0.00009013  -0.00000023  -0.00002709  -0.00000015
   -0.00000179   0.00000004  -0.00000079  -0.00000013   0.00000018  -0.00000007   0.00000076   0.00000027   0.00003157   0.00000494
    0.00000005   0.00004840   0.00000596  -0.00000070   0.00000055   0.00000000  -0.00000663   0.00000017  -0.00000087  -0.00000516
   -0.00001450  -0.00000003   0.00000001  -0.00000022   0.00000130  -0.00000000  -0.00000002   0.00000003  -0.00000004   0.00000007
    0.00000001   0.00000001   0.00000003  -0.00000005  -0.00000025   0.00000000  -0.00000000   0.00000005
 
   -0.00000029  -0.00000369   0.00003399  -0.00000971   0.00003089  -0.00004085   0.00017686   0.00000543   0.00046673   0.00000059
   -0.00001814   0.00000447   0.00007434  -0.00000579  -0.00000123  -0.00006235   0.00001928  -0.00001252   0.00000242  -0.00000112
   -0.00000034  -0.00000193  -0.00000441  -0.00000730   0.00001006   0.00000046   0.00000453   0.00001115   0.00000528   0.00004093
    0.00001427   0.00000596   0.00006010   0.00000441  -0.00000038   0.00000128   0.00012433   0.00000151  -0.00001627  -0.00013439
   -0.00027711  -0.00000093  -0.00000358  -0.00002231   0.00000529   0.00000031  -0.00000019   0.00000225   0.00000339   0.00000389
    0.00000108  -0.00000006  -0.00000091  -0.00000061  -0.00000257  -0.00000015  -0.00000005   0.00000134
 
    0.00000017   0.00000364   0.00012485   0.00000849  -0.00000811  -0.00002223  -0.00001334  -0.00000066   0.00010694  -0.00000086
    0.00000150  -0.00001538  -0.00001193  -0.00000403   0.00000193  -0.00000053   0.00001383   0.00000200   0.00000405   0.00000050
    0.00000007  -0.00000334   0.00000283  -0.00000930   0.00001111  -0.00000255   0.00000280   0.00000168  -0.00000060   0.00000224
    0.00000172  -0.00000070   0.00000441   0.00002484   0.00000275   0.00000572   0.00010546  -0.00000020  -0.00000539  -0.00002642
   -0.00001700  -0.00000032  -0.00000120  -0.00000562  -0.00000669   0.00000009   0.00000013   0.00000015   0.00000160   0.00000188
    0.00000618   0.00000008  -0.00000014  -0.00000043  -0.00000261   0.00000001  -0.00000004   0.00000032
 
    0.00000000   0.00000001  -0.00000025  -0.00000000  -0.00000001   0.00000015  -0.00000099  -0.00000015  -0.00000430   0.00000014
    0.00000002   0.00000000   0.00000018  -0.00000068  -0.00000105  -0.00000056   0.00000013  -0.00000009   0.00000054  -0.00000006
   -0.00000012  -0.00000019  -0.00000274  -0.00000016  -0.00001522   0.00000000  -0.00000393  -0.00000007  -0.00000017  -0.00000173
    0.00000000   0.00000055  -0.00000038   0.00000275   0.00002029   0.00000000  -0.00000160  -0.00000002   0.00000095   0.00000146
    0.00000117   0.00000001   0.00000005  -0.00000003   0.00000017  -0.00000001  -0.00000001   0.00000003   0.00000007  -0.00000000
    0.00000130  -0.00000000   0.00000010  -0.00000000  -0.00000047  -0.00000000   0.00000014  -0.00000006
 
    0.00000127   0.00002391   0.00039190  -0.00001693   0.00000116   0.00008285   0.00014386   0.00026498   0.00162108  -0.00009590
   -0.00008302  -0.00026618  -0.00009756   0.00008604  -0.00000315   0.00015257   0.00000687   0.00002315  -0.00000043   0.00000972
   -0.00000015   0.00001978   0.00000083   0.00004756  -0.00000117   0.00000473  -0.00000257   0.00002117   0.00000000   0.00000262
    0.00001211   0.00000000   0.00000128   0.00000572   0.00000000   0.00003238   0.00073955   0.00001384  -0.00023870  -0.00040643
   -0.00037643  -0.00000357  -0.00001518   0.00002253   0.00002908   0.00000221   0.00000007  -0.00000534  -0.00000009  -0.00000385
    0.00000160  -0.00000025   0.00000018  -0.00000342  -0.00000053   0.00000185  -0.00000000  -0.00000018
 
    0.00002536  -0.01143483   0.15748251  -0.00063309  -0.01432974   0.02035985  -0.62889951  -0.01089171   0.82965324  -0.00597448
    0.02992479  -0.21083796  -0.34816216  -0.00564700   0.00431964   0.08332040   0.00560250   0.02917531   0.00241353   0.01504980
    0.00053045  -0.01656313   0.00393440   0.01050128   0.00373673   0.00469587   0.00187537  -0.00098716  -0.00002186   0.00028280
    0.00303488  -0.00000663   0.00012433   0.00010546  -0.00000160   0.00073955   1.20754760  -0.01412010  -0.01809892  -0.04983162
    0.41099803  -0.00137614  -0.00792290  -0.03037962  -0.06629819   0.00081040   0.00005671   0.00318033  -0.00005959   0.00596926
    0.00096564  -0.00069721  -0.00002735   0.00011703  -0.00009711   0.00036234  -0.00000017   0.00002515
 
    0.00001394   0.00015842  -0.00440495  -0.00005248   0.00037161  -0.00023651   0.01260213   0.00069779  -0.00394612  -0.00042677
   -0.00098828   0.00213352   0.00627805   0.00031489  -0.00011717  -0.00090574  -0.00013739  -0.00044798  -0.00007635  -0.00022108
   -0.00001171   0.00042698  -0.00008767  -0.00000555  -0.00007866  -0.00003948  -0.00005144   0.00007189   0.00000056  -0.00000374
   -0.00001001   0.00000017   0.00000151  -0.00000020  -0.00000002   0.00001384  -0.01412010   0.00078872  -0.00075297  -0.00264863
   -0.01129679   0.00001145  -0.00004625   0.00062789   0.00164875   0.00001260  -0.00000201  -0.00008477   0.00000696  -0.00022054
   -0.00001125   0.00000632   0.00000024   0.00001399  -0.00000490   0.00000058   0.00000000   0.00000089
 
    0.00005274   0.00018191  -0.06933595   0.00154740  -0.00354509   0.00121584  -0.07542917  -0.00778347  -0.13186285   0.00370776
    0.00496872  -0.00374701  -0.03060182  -0.00730253   0.00121265  -0.00215585   0.00073064   0.00020590   0.00045428   0.00022038
    0.00011813  -0.00333271  -0.00009700  -0.00097605  -0.00016828  -0.00006913   0.00006490  -0.00099931  -0.00000258  -0.00006056
   -0.00007063  -0.00000087  -0.00001627  -0.00000539   0.00000095  -0.00023870  -0.01809892  -0.00075297   0.02098300   0.05157694
    0.10289367   0.00037247   0.00085969   0.00105874  -0.00712360  -0.00012924   0.00000562   0.00021191  -0.00002786   0.00009173
    0.00005298  -0.00001253  -0.00000007   0.00014442   0.00001421  -0.00004097   0.00000000  -0.00000116
 
    0.00041151  -0.00026912  -0.27720863   0.00441864  -0.02015666   0.03521443  -0.35810835  -0.00788053  -0.44128893   0.00012653
    0.01358839  -0.05336527  -0.17623822  -0.01940286   0.00530566   0.01146716   0.00379116   0.00242039   0.00212514   0.00212497
    0.00054871  -0.01314540   0.00045075   0.00149497  -0.00009745  -0.00080966   0.00019461  -0.00197937  -0.00001457  -0.00027279
    0.00051341  -0.00000516  -0.00013439  -0.00002642   0.00000146  -0.00040643  -0.04983162  -0.00264863   0.05157694   0.21862508
    0.49247976   0.00151611   0.00257181   0.02215370  -0.02842018  -0.00013204   0.00002954  -0.00207444  -0.00011800  -0.00393478
    0.00024046   0.00006535  -0.00001066   0.00157276   0.00007840  -0.00011068  -0.00000003  -0.00000306
 
    0.00066910  -0.00730298  -0.43560626   0.00788703  -0.05595827   0.11361570  -1.15502531  -0.01065952  -0.73165380  -0.00882176
    0.04255735  -0.23386945  -0.59805049  -0.04461045   0.01440266   0.07112113   0.01208505   0.01862508   0.00640974   0.01195642
    0.00157080  -0.03827755   0.00269758   0.01055599   0.00131258  -0.00016527   0.00109081  -0.00399933  -0.00004299  -0.00055327
    0.00293409  -0.00001450  -0.00027711  -0.00001700   0.00000117  -0.00037643   0.41099803  -0.01129679   0.10289367   0.49247976
    1.39904925   0.00297868   0.00181917   0.04497721  -0.09598726   0.00020188   0.00009414  -0.00434342  -0.00029955  -0.00784318
    0.00092467  -0.00009756  -0.00004125   0.00397663   0.00016677  -0.00008083  -0.00000018   0.00000197
 
    0.00000342   0.00000091  -0.00221665   0.00003241  -0.00013077   0.00023559  -0.00187311  -0.00010728  -0.00371183  -0.00000596
    0.00004872  -0.00021199  -0.00089032  -0.00014025   0.00003031  -0.00000334   0.00001882  -0.00001312   0.00001193  -0.00000030
    0.00000314  -0.00007205  -0.00000231   0.00000366  -0.00000558  -0.00000885  -0.00000152  -0.00001216  -0.00000007  -0.00000204
    0.00000160  -0.00000003  -0.00000093  -0.00000032   0.00000001  -0.00000357  -0.00137614   0.00001145   0.00037247   0.00151611
    0.00297868   0.00001378   0.00002279   0.00019475  -0.00011298  -0.00000144   0.00000010  -0.00001725  -0.00000052  -0.00003889
    0.00000095   0.00000064  -0.00000005   0.00001117   0.00000038  -0.00000066  -0.00000000   0.00000003
 
   -0.00000867  -0.00000596  -0.00594464   0.00005335  -0.00011443   0.00014916   0.00063574  -0.00004502  -0.00919254   0.00016490
    0.00001392   0.00114336   0.00074235  -0.00020595   0.00002285  -0.00051245  -0.00001530  -0.00014999   0.00000916  -0.00007640
    0.00000005  -0.00003473  -0.00002193  -0.00010830  -0.00002672  -0.00004398  -0.00000883  -0.00004047   0.00000003  -0.00000483
   -0.00003277   0.00000001  -0.00000358  -0.00000120   0.00000005  -0.00001518  -0.00792290  -0.00004625   0.00085969   0.00257181
    0.00181917   0.00002279   0.00015853   0.00033652   0.00012969  -0.00001767   0.00000027  -0.00004090  -0.00000229  -0.00004834
   -0.00000532   0.00000902   0.00000021   0.00001476   0.00000347  -0.00000692   0.00000000  -0.00000079
 
    0.00011195   0.00019982  -0.03086455   0.00023813  -0.00230085   0.00747474  -0.02452831   0.00323199  -0.04933039  -0.00241667
   -0.00082601  -0.00649845  -0.01457154  -0.00082747   0.00038141   0.00159606   0.00027103  -0.00046167   0.00013526  -0.00006632
    0.00004656  -0.00072740  -0.00004093   0.00074039  -0.00013024  -0.00024321  -0.00010346   0.00010901  -0.00000039  -0.00003246
    0.00009863  -0.00000022  -0.00002231  -0.00000562  -0.00000003   0.00002253  -0.03037962   0.00062789   0.00105874   0.02215370
    0.04497721   0.00019475   0.00033652   0.00608453   0.00015276   0.00003210   0.00000172  -0.00080103  -0.00000799  -0.00146329
    0.00000719   0.00004448  -0.00000138   0.00036671   0.00000972  -0.00001655  -0.00000000  -0.00000053
 
   -0.00007057   0.00066461   0.02560628  -0.00080408   0.00412116  -0.00408506   0.08899229   0.00382964   0.01813652  -0.00070056
   -0.00458943   0.01749349   0.04628099   0.00239689  -0.00104354  -0.00652345  -0.00092756  -0.00231246  -0.00046185  -0.00130989
   -0.00011209   0.00308019  -0.00042419  -0.00049192  -0.00039092  -0.00009964  -0.00025505   0.00037823   0.00000390   0.00002078
   -0.00022095   0.00000130   0.00000529  -0.00000669   0.00000017   0.00002908  -0.06629819   0.00164875  -0.00712360  -0.02842018
   -0.09598726  -0.00011298   0.00012969   0.00015276   0.00997116  -0.00001200  -0.00000761  -0.00007234   0.00001920  -0.00035816
   -0.00008902   0.00003494   0.00000338  -0.00012005  -0.00000363  -0.00000614   0.00000002  -0.00000170
 
    0.00000435   0.00001322   0.00032437  -0.00000252  -0.00000933   0.00005081  -0.00033952   0.00002501   0.00099408  -0.00006013
   -0.00001504  -0.00025774  -0.00027596   0.00002936   0.00000170   0.00010054   0.00000473   0.00001656  -0.00000118   0.00001102
    0.00000062  -0.00000373   0.00000316   0.00002393   0.00000259   0.00000294   0.00000015   0.00000657  -0.00000000   0.00000031
    0.00000579  -0.00000000   0.00000031   0.00000009  -0.00000001   0.00000221   0.00081040   0.00001260  -0.00012924  -0.00013204
    0.00020188  -0.00000144  -0.00001767   0.00003210  -0.00001200   0.00000449  -0.00000000  -0.00000631   0.00000020  -0.00001408
    0.00000076  -0.00000113  -0.00000006   0.00000434  -0.00000030   0.00000076  -0.00000000   0.00000010
 
    0.00000005  -0.00000058  -0.00004337   0.00000101  -0.00000532   0.00000778  -0.00008527  -0.00000080  -0.00001076  -0.00000093
    0.00000387  -0.00002066  -0.00004579  -0.00000329   0.00000308   0.00000671   0.00000040   0.00000186   0.00000155   0.00000112
   -0.00000001  -0.00000298   0.00000108   0.00000120  -0.00000018  -0.00000010   0.00000035   0.00000040   0.00000027   0.00000076
    0.00000045  -0.00000002  -0.00000019   0.00000013  -0.00000001   0.00000007   0.00005671  -0.00000201   0.00000562   0.00002954
    0.00009414   0.00000010   0.00000027   0.00000172  -0.00000761  -0.00000000   0.00000137  -0.00000021  -0.00000070  -0.00000039
    0.00000159  -0.00000001  -0.00000029   0.00000033   0.00000090  -0.00000003   0.00000001  -0.00000014
 
   -0.00002723   0.00000021   0.00407218  -0.00003035   0.00028861  -0.00088581   0.00215876  -0.00059155   0.00327052   0.00044266
    0.00022181   0.00096053   0.00161805  -0.00005193  -0.00003642  -0.00029174  -0.00002619   0.00006657  -0.00000378   0.00000008
   -0.00000545   0.00006205  -0.00000251  -0.00010098   0.00000913   0.00004166   0.00001219  -0.00002106   0.00000004   0.00000400
   -0.00001155   0.00000003   0.00000225   0.00000015   0.00000003  -0.00000534   0.00318033  -0.00008477   0.00021191  -0.00207444
   -0.00434342  -0.00001725  -0.00004090  -0.00080103  -0.00007234  -0.00000631  -0.00000021   0.00014257   0.00000097   0.00021436
   -0.00000034  -0.00001103   0.00000011  -0.00006339  -0.00000114   0.00000523   0.00000000   0.00000016
 
   -0.00000011   0.00000197   0.00015513  -0.00000201   0.00001781  -0.00003309   0.00024126   0.00000084   0.00015499   0.00000394
   -0.00001114   0.00005284   0.00012580   0.00001325   0.00000177  -0.00001523   0.00001955  -0.00000333  -0.00000034  -0.00000222
    0.00000130   0.00000870   0.00000093  -0.00000318   0.00000761   0.00000091   0.00000127  -0.00000105  -0.00000103   0.00000040
   -0.00000084  -0.00000004   0.00000339   0.00000160   0.00000007  -0.00000009  -0.00005959   0.00000696  -0.00002786  -0.00011800
   -0.00029955  -0.00000052  -0.00000229  -0.00000799   0.00001920   0.00000020  -0.00000070   0.00000097   0.00001688   0.00000176
    0.00000620  -0.00000014  -0.00000204  -0.00000114  -0.00000878   0.00000022   0.00000002   0.00000238
 
   -0.00005460  -0.00014192   0.00589316  -0.00009581   0.00043811  -0.00149867   0.00414098  -0.00091936   0.00777633   0.00072435
    0.00032709   0.00187433   0.00259290   0.00026010  -0.00005694  -0.00028000  -0.00005253   0.00017226  -0.00000728   0.00003263
   -0.00001002   0.00009509   0.00001869  -0.00021976   0.00004973   0.00003645   0.00003889  -0.00003722   0.00000005   0.00000374
   -0.00003017   0.00000007   0.00000389   0.00000188  -0.00000000  -0.00000385   0.00596926  -0.00022054   0.00009173  -0.00393478
   -0.00784318  -0.00003889  -0.00004834  -0.00146329  -0.00035816  -0.00001408  -0.00000039   0.00021436   0.00000176   0.00044549
   -0.00000289  -0.00000964   0.00000029  -0.00011463  -0.00000164   0.00000493  -0.00000000   0.00000005
 
    0.00000045  -0.00000698  -0.00030563   0.00000423  -0.00001071   0.00001929  -0.00097113  -0.00001148   0.00031871  -0.00000711
    0.00004487  -0.00028293  -0.00051750  -0.00004424   0.00005439   0.00008118   0.00000860   0.00002654   0.00001463   0.00001468
    0.00000154  -0.00004347   0.00002806   0.00000658  -0.00000812   0.00000285   0.00000557  -0.00000027   0.00000171   0.00000292
    0.00000612   0.00000001   0.00000108   0.00000618   0.00000130   0.00000160   0.00096564  -0.00001125   0.00005298   0.00024046
    0.00092467   0.00000095  -0.00000532   0.00000719  -0.00008902   0.00000076   0.00000159  -0.00000034   0.00000620  -0.00000289
    0.00007858  -0.00000051   0.00000016   0.00000159  -0.00001621   0.00000036   0.00000010   0.00000151
 
   -0.00000210  -0.00001616  -0.00008616  -0.00000786   0.00000230   0.00005144   0.00027818   0.00006046  -0.00047626  -0.00002470
   -0.00004038   0.00006728   0.00012451   0.00001246  -0.00000182  -0.00003371  -0.00000304  -0.00002072  -0.00000126  -0.00000721
   -0.00000015   0.00000769  -0.00000164  -0.00000413  -0.00000211  -0.00000626  -0.00000143   0.00000100   0.00000001  -0.00000032
   -0.00000222   0.00000001  -0.00000006   0.00000008  -0.00000000  -0.00000025  -0.00069721   0.00000632  -0.00001253   0.00006535
   -0.00009756   0.00000064   0.00000902   0.00004448   0.00003494  -0.00000113  -0.00000001  -0.00001103  -0.00000014  -0.00000964
   -0.00000051   0.00000300   0.00000006   0.00000331   0.00000013  -0.00000170  -0.00000000  -0.00000008
 
   -0.00000004   0.00000005   0.00001894  -0.00000121   0.00000526  -0.00000550   0.00003571   0.00000051   0.00000401  -0.00000002
   -0.00000082   0.00000644   0.00002022   0.00000011  -0.00000132  -0.00000283  -0.00000465  -0.00000113  -0.00000179  -0.00000052
   -0.00000009   0.00000073  -0.00000009  -0.00000073  -0.00000198  -0.00000006  -0.00000080  -0.00000002  -0.00000015  -0.00000104
   -0.00000011   0.00000003  -0.00000091  -0.00000014   0.00000010   0.00000018  -0.00002735   0.00000024  -0.00000007  -0.00001066
   -0.00004125  -0.00000005   0.00000021  -0.00000138   0.00000338  -0.00000006  -0.00000029   0.00000011  -0.00000204   0.00000029
    0.00000016   0.00000006   0.00000128  -0.00000017   0.00000074  -0.00000004  -0.00000000  -0.00000083
 
    0.00002631   0.00003671  -0.00210093   0.00006388  -0.00019857   0.00036087  -0.00298834   0.00015280  -0.00197859  -0.00018635
    0.00001517  -0.00089187  -0.00166069  -0.00013674   0.00003919   0.00017114   0.00003508  -0.00001038   0.00000601   0.00002066
    0.00000590  -0.00009935   0.00000396   0.00005355  -0.00000627  -0.00000957  -0.00000503  -0.00000778  -0.00000011  -0.00000193
    0.00001048  -0.00000005  -0.00000061  -0.00000043  -0.00000000  -0.00000342   0.00011703   0.00001399   0.00014442   0.00157276
    0.00397663   0.00001117   0.00001476   0.00036671  -0.00012005   0.00000434   0.00000033  -0.00006339  -0.00000114  -0.00011463
    0.00000159   0.00000331  -0.00000017   0.00004425   0.00000117  -0.00000337   0.00000000  -0.00000008
 
    0.00000012   0.00000001  -0.00011573   0.00000537  -0.00003141   0.00004343  -0.00008762   0.00000028  -0.00024073  -0.00000212
    0.00000270   0.00000241  -0.00004621  -0.00000178  -0.00000763   0.00000391  -0.00000223  -0.00000023   0.00000369  -0.00000004
   -0.00000101   0.00000111  -0.00000599   0.00000368  -0.00000154  -0.00000162  -0.00000104   0.00000086   0.00000078   0.00000018
   -0.00000046  -0.00000025  -0.00000257  -0.00000261  -0.00000047  -0.00000053  -0.00009711  -0.00000490   0.00001421   0.00007840
    0.00016677   0.00000038   0.00000347   0.00000972  -0.00000363  -0.00000030   0.00000090  -0.00000114  -0.00000878  -0.00000164
   -0.00001621   0.00000013   0.00000074   0.00000117   0.00001235  -0.00000026   0.00000001  -0.00000208
 
    0.00000071   0.00000610   0.00006947  -0.00000135  -0.00000132   0.00000162  -0.00002973   0.00010050   0.00047726  -0.00000176
    0.00000110  -0.00004173  -0.00003764   0.00001884  -0.00000059   0.00004364   0.00000056   0.00001569   0.00000106   0.00000420
   -0.00000022   0.00000245   0.00000118   0.00000786   0.00000200   0.00000353   0.00000076   0.00000315   0.00000000   0.00000008
    0.00000213   0.00000000  -0.00000015   0.00000001  -0.00000000   0.00000185   0.00036234   0.00000058  -0.00004097  -0.00011068
   -0.00008083  -0.00000066  -0.00000692  -0.00001655  -0.00000614   0.00000076  -0.00000003   0.00000523   0.00000022   0.00000493
    0.00000036  -0.00000170  -0.00000004  -0.00000337  -0.00000026   0.00000172  -0.00000000   0.00000009
 
    0.00000000   0.00000000  -0.00000005   0.00000000  -0.00000000  -0.00000001   0.00000017   0.00000000  -0.00000002   0.00000000
   -0.00000001   0.00000005   0.00000010   0.00000000  -0.00000006  -0.00000001  -0.00000017  -0.00000000  -0.00000001  -0.00000000
   -0.00000001   0.00000000  -0.00000006  -0.00000001  -0.00000021  -0.00000000   0.00000002  -0.00000000   0.00000009  -0.00000015
   -0.00000000  -0.00000000  -0.00000005  -0.00000004   0.00000014  -0.00000000  -0.00000017   0.00000000   0.00000000  -0.00000003
   -0.00000018  -0.00000000   0.00000000  -0.00000000   0.00000002  -0.00000000   0.00000001   0.00000000   0.00000002  -0.00000000
    0.00000010  -0.00000000  -0.00000000   0.00000000   0.00000001  -0.00000000   0.00000031  -0.00000000
 
    0.00000002   0.00000001   0.00000164  -0.00000006   0.00000104  -0.00000284  -0.00000814  -0.00000014   0.00002849   0.00000062
   -0.00000117  -0.00000391  -0.00000528   0.00000003   0.00000085   0.00000017   0.00000214   0.00000084   0.00000028   0.00000023
    0.00000010  -0.00000067   0.00000049  -0.00000025   0.00000188   0.00000036   0.00000089  -0.00000027   0.00000006   0.00000100
   -0.00000002   0.00000005   0.00000134   0.00000032  -0.00000006  -0.00000018   0.00002515   0.00000089  -0.00000116  -0.00000306
    0.00000197   0.00000003  -0.00000079  -0.00000053  -0.00000170   0.00000010  -0.00000014   0.00000016   0.00000238   0.00000005
    0.00000151  -0.00000008  -0.00000083  -0.00000008  -0.00000208   0.00000009  -0.00000000   0.00000122

 SYMMETRY BLOCK 2.1
 
[...]
    0.00000000   0.00000000   0.00000000   0.16926722  -0.66609643   0.00000000  -0.19325004  -0.43628340  -2.54762257   0.00000000
    0.00000000  -0.01004792   0.12754998   0.64947464   0.46451526   0.21419367
 
    0.00014968   0.00100448  -0.00508470   0.02909420  -0.03631112   0.00000000   0.05799943   0.04934942  -0.11451594   0.01535494
    0.07023644   0.00000000   0.00000000   0.00761848   0.11320441   0.00000000  -0.06801813  -0.10008788  -0.01731687   0.01267161
    0.00000000   0.00000000   0.00000000   0.02482204  -0.05010179   0.00000000  -0.07607136  -0.29609482   1.64957724   0.00000000
    0.00000000   0.07134328  -0.12437663  -0.10495903  -0.13764673  -0.05813994
 
    0.00006183   0.00026109   0.00650055  -0.18726740  -0.51647416   0.00000000   1.14902606   0.89438870   1.73459076   0.13438609
    1.76514644   0.00000000   0.00000000  -1.45849112   1.68070212   0.00000000   0.30554894   0.73621522  -0.48781180  -0.76861667
    0.00000000   0.00000000   0.00000000   0.58757227   1.42366414   0.00000000   0.77009697   0.14011526   0.59111300   0.00000000
    0.00000000  -0.18718336   0.30478683  -0.12827978  -0.61323217  -0.18334030
 
    0.00000000   0.00000000   0.00000000   0.00000000   0.00000000   1.26128059   0.00000000   0.00000000   0.00000000   0.00000000
    0.00000000  -0.05196316  -1.03765807   0.00000000   0.00000000  -0.14447154   0.00000000   0.00000000   0.00000000   0.00000000
    0.00000000   0.70081496  -0.02933361   0.00000000   0.00000000  -0.01563900   0.00000000   0.00000000   0.00000000   0.06409481
    0.01636126   0.00000000   0.00000000   0.00000000   0.00000000   0.00000000
 
    0.00005120   0.00165903  -0.05163421   0.04419126  -0.18529280   0.00000000  -0.46729838   0.03791230   0.08335402   0.65238282
   -0.14327608   0.00000000   0.00000000   1.52354390   1.35481843   0.00000000   0.39928293  -0.56296650  -1.49717183   0.31290760
    0.00000000   0.00000000   0.00000000  -2.08998523   1.30131877   0.00000000   0.73182630   2.50591097   1.61952183   0.00000000
    0.00000000  -0.07611915   0.18266620  -1.83434466  -0.89336271  -0.47289759
 
    0.00000000   0.00000000   0.00000000   0.00000000   0.00000000  -0.44059956   0.00000000   0.00000000   0.00000000   0.00000000
    0.00000000   0.05059136   1.71303662   0.00000000   0.00000000  -0.01949546   0.00000000   0.00000000   0.00000000   0.00000000
    0.00000000  -1.80537707   0.19191165   0.00000000   0.00000000  -0.00509623   0.00000000   0.00000000   0.00000000  -0.04914067
    0.07116553   0.00000000   0.00000000   0.00000000   0.00000000   0.00000000
 
    0.00008836   0.00052928   0.01070454  -0.01255125   0.03757496   0.00000000   0.14470863   0.02079236   0.01639728  -0.11013563
    0.00245828   0.00000000   0.00000000  -0.14862647  -0.20682465   0.00000000  -0.02199344   0.18220626   0.19942379  -0.05173642
    0.00000000   0.00000000   0.00000000   1.73726695   0.13900375   0.00000000  -0.40176856  -0.64242686  -0.37846347   0.00000000
    0.00000000  -0.03870632   0.18941933   0.09132981   0.04964158   0.07969870
 
    0.00000000   0.00000000   0.00000000   0.00000000   0.00000000   0.15080910   0.00000000   0.00000000   0.00000000   0.00000000
    0.00000000  -0.00726956  -0.20199378   0.00000000   0.00000000  -0.00301690   0.00000000   0.00000000   0.00000000   0.00000000
    0.00000000   1.74803913  -0.18726584   0.00000000   0.00000000   0.00245273   0.00000000   0.00000000   0.00000000   0.02413157
   -0.03443297   0.00000000   0.00000000   0.00000000   0.00000000   0.00000000
 
    0.00007188   0.00026013  -0.02611179  -0.02652905  -0.25360225   0.00000000  -0.04758828   0.21054858   0.41697239   0.47631483
    0.13717574   0.00000000   0.00000000  -0.67061534   1.93701932   0.00000000   0.36127745   0.41509965  -0.60466486   0.15502317
    0.00000000   0.00000000   0.00000000  -0.19554580   1.35466861   0.00000000   1.33026518   0.74647728   0.91075450   0.00000000
    0.00000000  -0.10912341  -0.00232857  -0.70163836  -0.56072632  -0.26411943
 
    0.00000000   0.00000000   0.00000000   0.00000000   0.00000000   0.00422698   0.00000000   0.00000000   0.00000000   0.00000000
    0.00000000   1.05158395  -0.03872441   0.00000000   0.00000000  -0.44339758   0.00000000   0.00000000   0.00000000   0.00000000
    0.00000000  -0.00128432   0.02843488   0.00000000   0.00000000  -0.67652713   0.00000000   0.00000000   0.00000000   0.06377558
    0.13287632   0.00000000   0.00000000   0.00000000   0.00000000   0.00000000
 
    0.00003253   0.00025176  -0.00186808   0.00404649   0.01222756   0.00000000  -0.00934422  -0.00364631  -0.02298889  -0.01332650
    0.01159265   0.00000000   0.00000000   0.08039450  -0.12999619   0.00000000  -0.00746590  -0.08961376  -0.00760190  -0.32283952
    0.00000000   0.00000000   0.00000000   0.03478532  -0.30855440   0.00000000  -0.89386176   0.93752448   0.20068753   0.00000000
    0.00000000  -0.22773508   0.14637305  -0.65457429  -0.12211012  -0.06487357
 
    0.00000000   0.00000000   0.00000000   0.00000000   0.00000000  -0.00073447   0.00000000   0.00000000   0.00000000   0.00000000
    0.00000000  -0.16837825   0.00756547   0.00000000   0.00000000   0.04353993   0.00000000   0.00000000   0.00000000   0.00000000
    0.00000000   0.01407147   0.12727754   0.00000000   0.00000000   1.25757971   0.00000000   0.00000000   0.00000000  -0.05118106
   -0.00586578   0.00000000   0.00000000   0.00000000   0.00000000   0.00000000
 
    0.00004568   0.00013468  -0.00861343   0.00115511  -0.04077826   0.00000000  -0.02266729   0.04132293   0.07692579   0.04754245
    0.04506836   0.00000000   0.00000000  -0.03282554   0.17987075   0.00000000   0.01437864  -0.18891383  -0.10584531  -0.28893613
    0.00000000   0.00000000   0.00000000   0.18239658   0.14324825   0.00000000   0.98497111   0.91397932   0.50447998   0.00000000
    0.00000000  -0.31490046  -0.05345595  -0.60220756  -0.13288122  -0.12499676
 
    0.00000000   0.00000000   0.00000000   0.00000000   0.00000000   0.00042068   0.00000000   0.00000000   0.00000000   0.00000000
    0.00000000  -0.00096844  -0.00045800   0.00000000   0.00000000   0.06865751   0.00000000   0.00000000   0.00000000   0.00000000
    0.00000000   0.10659944   1.00248556   0.00000000   0.00000000  -0.13069978   0.00000000   0.00000000   0.00000000  -0.04398050
    0.19397523   0.00000000   0.00000000   0.00000000   0.00000000   0.00000000
 
    0.00000000   0.00000000   0.00000000   0.00000000   0.00000000   0.00000000   0.00000000   0.00000000   0.00000000   0.00000000
    0.00000000   0.00000000   0.00000000   0.00000000   0.00000000   0.00000000   0.00000000   0.00000000   0.00000000   0.00000000
    1.00000000   0.00000000   0.00000000   0.00000000   0.00000000   0.00000000   0.00000000   0.00000000   0.00000000   0.00000000
    0.00000000   0.00000000   0.00000000   0.00000000   0.00000000   0.00000000
 
   -0.00000421   0.00067916   0.00421126  -0.00789551  -0.00476563   0.00000000   0.01566562  -0.00300550  -0.02659997   0.04899403
   -0.04816687   0.00000000   0.00000000  -0.00682391  -0.07348657   0.00000000  -0.00449164  -0.01050571  -0.08293802   0.10644402
    0.00000000   0.00000000   0.00000000   0.04919771  -0.26039347   0.00000000   0.03349810  -0.06641907   0.00208534   0.00000000
    0.00000000   0.09539945   0.13216700  -0.30929524   1.84178918   0.04551295
 
    0.00005418   0.00225489  -0.02356798   0.05335919   0.01384476   0.00000000  -0.06842174   0.04696542   0.16504251  -0.16446946
    0.23678358   0.00000000   0.00000000   0.02049540   0.45678659   0.00000000   0.03102846   0.02813409   0.56900146  -0.76065015
    0.00000000   0.00000000   0.00000000  -0.43965382   2.19959841   0.00000000  -0.16175763   0.50308628   0.49442216   0.00000000
    0.00000000  -0.06387753   0.08877082  -0.15134518  -2.48740171  -0.19320546
 
   -0.00014663   0.01103676   0.09935493  -0.11547656   0.09828072   0.00000000   0.32090319  -0.25178217  -0.85247509   0.84504846
   -1.32781729   0.00000000   0.00000000   0.32259033  -3.21283455   0.00000000  -0.77857505  -0.40669435   0.98524760   0.84122213
    0.00000000   0.00000000   0.00000000   0.88632670  -4.45813578   0.00000000  -1.41371019  -2.86603191  -2.50789468   0.00000000
    0.00000000   0.35355684  -0.41193813   2.30560464   2.84928845   0.74331715
 
   -0.00013552   0.00468856  -0.08441459   0.86966558   2.69061169   0.00000000  -0.76762393  -1.21256489  -2.54928500  -2.26080802
   -2.52568358   0.00000000   0.00000000   0.74006752  -2.24223473   0.00000000  -0.41240070  -0.42238842   2.02345430   1.09216983
    0.00000000   0.00000000   0.00000000  -0.07275175  -1.56339455   0.00000000  -0.67705486  -0.51120985  -0.89772787   0.00000000
    0.00000000   0.10060506  -0.94341029   0.33121620   0.57332822   0.32183258
 
   -0.00001819  -0.00019767   0.00260853  -0.00387261  -0.00270994   0.00000000   0.00890618  -0.00213178   0.00414954   0.02545533
    0.07242290   0.00000000   0.00000000   0.03473297  -0.04233087   0.00000000   0.00088566   0.07011093  -0.06148429  -0.19300804
    0.00000000   0.00000000   0.00000000  -0.00402865  -0.06640990   0.00000000  -0.09838180  -0.20367883   0.00947541   0.00000000
    0.00000000  -0.68266314   0.88687705   1.37981302   0.27311839   0.08074970
 
    0.00003577  -0.00199749  -0.00994857   0.01838396   0.02775308   0.00000000  -0.05489894  -0.00457238  -0.03441735  -0.14306737
   -0.38078479   0.00000000   0.00000000  -0.20002397   0.20373393   0.00000000  -0.03394060  -0.38847002   0.48231908   1.44617821
    0.00000000   0.00000000   0.00000000  -0.01120005   0.43149689   0.00000000   0.65956533   1.70421562   0.67049293   0.00000000
    0.00000000   0.29619604  -0.99833728  -2.26736477  -0.47005492  -0.25157479
 
    0.00013053  -0.00282467  -0.05580257  -0.14042966  -0.78995160   0.00000000  -0.04859460   0.65360129   1.31778187   1.74010798
    2.73280341   0.00000000   0.00000000   0.00034819   2.59302029   0.00000000   0.79887218   0.36582442  -2.86432801  -1.66899527
    0.00000000   0.00000000   0.00000000  -0.53364555   2.86647113   0.00000000   0.49686180   1.37356846   1.75451878   0.00000000
    0.00000000  -0.19637503   1.44575847  -0.89764897  -1.42819796  -0.54260594
 
   -0.00000154   0.00018687  -0.00122873  -0.00396271  -0.01548886   0.00000000   0.00054565   0.01297820   0.01700191   0.02786457
    0.00448399   0.00000000   0.00000000  -0.01388903   0.02598670   0.00000000   0.01098075  -0.08128718  -0.14061162  -0.01950691
    0.00000000   0.00000000   0.00000000   0.04514027   0.07517655   0.00000000  -0.07674448   0.16259718   0.04166245   0.00000000
    0.00000000   1.04343761   0.72763996   0.17056156  -0.16947543  -0.00949860
 
    0.00000000   0.00000000   0.00000000   0.00000000   0.00000000   0.00073737   0.00000000   0.00000000   0.00000000   0.00000000
    0.00000000  -0.02418966  -0.00191450   0.00000000   0.00000000  -0.15068006   0.00000000   0.00000000   0.00000000   0.00000000
    0.00000000   0.00011088   0.03384075   0.00000000   0.00000000   0.00299862   0.00000000   0.00000000   0.00000000   1.07823601
    0.52987684   0.00000000   0.00000000   0.00000000   0.00000000   0.00000000
 
   -0.00007269   0.00069887   0.02145148   0.02642555   0.17441816   0.00000000   0.06521408  -0.14862403  -0.21902210  -0.33638368
   -0.12341423   0.00000000   0.00000000   0.09367938  -0.63332387   0.00000000  -0.21509608   0.79458113   1.63002595   0.23351902
    0.00000000   0.00000000   0.00000000   0.10475718  -1.38986551   0.00000000   0.08696349  -1.35920683  -0.88803980   0.00000000
    0.00000000  -0.43409735  -0.85789839   1.13452785   0.81081761   0.30896149
 
    0.00000000   0.00000000   0.00000000   0.00000000   0.00000000  -0.00396490   0.00000000   0.00000000   0.00000000   0.00000000
    0.00000000   0.13457151   0.01812618   0.00000000   0.00000000   1.10789039   0.00000000   0.00000000   0.00000000   0.00000000
    0.00000000  -0.01704107  -0.31391661   0.00000000   0.00000000   0.12202231   0.00000000   0.00000000   0.00000000  -0.49095167
   -0.32662920   0.00000000   0.00000000   0.00000000   0.00000000   0.00000000
 
    0.00001874  -0.00009734  -0.00157765  -0.00140835  -0.01025683   0.00000000  -0.00732734   0.00788476   0.00942632   0.02419600
    0.01368564   0.00000000   0.00000000   0.01170890   0.03641593   0.00000000   0.01875851  -0.00812222  -0.04971053  -0.02365055
    0.00000000   0.00000000   0.00000000  -0.04455780   0.00337568   0.00000000   0.09086286  -0.00923788   0.07106986   0.00000000
    0.00000000  -0.31341868   0.70642829  -0.87011477  -0.28458056  -0.05698516
 
    0.00000000   0.00000000   0.00000000   0.00000000   0.00000000   0.00011686   0.00000000   0.00000000   0.00000000   0.00000000
    0.00000000   0.00521364  -0.00125570   0.00000000   0.00000000  -0.00206312   0.00000000   0.00000000   0.00000000   0.00000000
    0.00000000  -0.00157805  -0.04005653   0.00000000   0.00000000  -0.01225521   0.00000000   0.00000000   0.00000000  -0.42802247
    0.92069203   0.00000000   0.00000000   0.00000000   0.00000000   0.00000000

 SYMMETRY BLOCK 4.1
 
    0.92668084  -0.03597271  -1.08632133  -0.49107346   0.00000000   0.06949229   0.30441133   0.72147303   0.00480017   0.33232177
    0.00000000   0.04612483   0.00000000  -0.03612507   0.22869265  -0.36010787   0.00000000  -0.05636208  -0.16293550  -0.00704495
 
    0.02107204   0.00603750   1.28697705   0.07704532   0.00000000  -0.02595435  -0.02861784  -1.55043382   0.75388380   0.15235222
    0.00000000  -0.00453417   0.00000000   0.13190772   0.26358091   1.17235183   0.00000000  -0.07791817  -0.13620627  -0.32580686
 
    0.15290749  -0.00614784   0.01333019  -0.01290812   0.00000000  -0.00903526   0.00950070   1.33593406  -0.44131787  -0.06319627
    0.00000000   0.00131005   0.00000000  -0.04185716  -0.08796859  -1.97387286   0.00000000   0.05843939   0.06332176   0.19310012
 
    0.03019072  -0.00013975   0.16191726   0.00403601   0.00000000  -0.00479714   0.00147215   0.11878876  -0.02669231   0.00230583
    0.00000000  -0.00202839   0.00000000  -0.02150693  -0.04475724   1.61428346   0.00000000  -0.03886050  -0.02045434  -0.07395891
 
    0.01017637   1.20027546  -0.00391165  -0.86040773   0.00000000  -0.81524103   0.91269824   0.03260086   0.18379628   0.47601808
    0.00000000   0.75575027   0.00000000  -0.20371871   0.22191947   0.01997096   0.00000000  -0.11325648  -0.23335809   0.01647263
 
    0.00527444  -0.41146143  -0.01088757   0.16425066   0.00000000   1.48430523  -0.73751522   0.19903895   0.58992750   0.16483546
    0.00000000  -1.77373904   0.00000000   0.56640063   0.73284782   0.06789474   0.00000000  -0.03641201  -0.12736442  -0.50537017
 
   -0.00104483   0.14242589   0.00556637  -0.04536983   0.00000000  -0.17123322   0.08246880  -0.02313291   0.00109697  -0.10882202
    0.00000000   1.69732215   0.00000000  -0.37552636  -0.42570829  -0.03002468   0.00000000   0.01729785   0.00239118   0.13336516
 
    0.00817870   0.01081238  -0.02486877   0.02169782   0.00000000   0.42057297   1.23816728   0.20248704   0.78207220   0.37041892
    0.00000000  -0.00281200   0.00000000  -0.43197231   0.99209113   0.07514057   0.00000000  -0.16003651  -0.24156240  -0.31031825
 
    0.00000000   0.00000000   0.00000000   0.00000000   1.09876238   0.00000000   0.00000000   0.00000000   0.00000000   0.00000000
   -0.00562821   0.00000000  -0.63736394   0.00000000   0.00000000   0.00000000  -0.02698549   0.00000000   0.00000000   0.00000000
 
   -0.00085936  -0.00017877   0.00266888  -0.00665626   0.00000000  -0.05994504  -0.17036329  -0.02536902  -0.12052457   0.05369288
    0.00000000   0.11022111   0.00000000   1.12908814  -0.59688042  -0.00986033   0.00000000   0.14191187  -0.02265536  -0.17927053
 
    0.00000000   0.00000000   0.00000000   0.00000000  -0.17577397   0.00000000   0.00000000   0.00000000   0.00000000   0.00000000
    0.00732681   0.00000000   1.25802546   0.00000000   0.00000000   0.00000000   0.01169067   0.00000000   0.00000000   0.00000000
 
    0.00000000   0.00000000   0.00000000   0.00000000   0.00154785   0.00000000   0.00000000   0.00000000   0.00000000   0.00000000
    0.99933777   0.00000000  -0.00540302   0.00000000   0.00000000   0.00000000  -0.04839022   0.00000000   0.00000000   0.00000000
 
    0.00321364   0.00489440  -0.00821500  -0.02134841   0.00000000  -0.01395863   0.01099467   0.02337071  -0.09710840   0.11975093
    0.00000000   0.25093705   0.00000000   0.38581544   1.09102665   0.06267574   0.00000000   0.12841818  -0.12677027  -0.39924056
 
    0.00141365   0.01429037  -0.00388664   0.08340898   0.00000000  -0.02483112  -0.01464715   0.02116722   0.08733656  -0.25834677
    0.00000000  -0.00823740   0.00000000   0.04037189   0.05103657  -0.01379902   0.00000000  -0.31970269   1.27168546  -0.91581478
 
   -0.00268098  -0.05360172   0.01414868  -0.38312720   0.00000000   0.12430337   0.09085925  -0.10360286  -0.49504161   1.61144733
    0.00000000   0.08805542   0.00000000  -0.37080106  -0.34950087  -0.02729035   0.00000000   0.18810276  -1.16706067   0.90164562
 
   -0.00311406   0.11351909   0.01171485   1.50671273   0.00000000  -0.24669227  -0.90365192  -0.13899445  -0.42891574  -1.49781722
    0.00000000  -0.15560069   0.00000000   0.17203168  -0.66244673  -0.05536199   0.00000000   0.08709588   0.80294528   0.02486493
 
   -0.00240822  -0.00691008   0.00641868   0.00354909   0.00000000   0.02077183  -0.00142976  -0.04099646  -0.13786553  -0.08386594
    0.00000000  -0.01900005   0.00000000  -0.07514993  -0.06296837   0.02099931   0.00000000   1.10138609   0.51387985   0.29222417
 
    0.01148284   0.02854059  -0.03812448  -0.03125282   0.00000000  -0.10551088   0.08890143   0.32761874   1.26266487   0.75984911
    0.00000000   0.02680080   0.00000000   0.35549398   0.84763924   0.09791974   0.00000000  -0.55613365  -0.53585959  -0.60713510
 
   -0.00003354   0.00328578   0.00015757   0.00295748   0.00000000  -0.01131109  -0.01427085  -0.00206233  -0.00140927  -0.00576372
    0.00000000   0.02324154   0.00000000   0.06003548  -0.01359901   0.01393636   0.00000000  -0.36940231   0.49733577   0.89387428
 
    0.00000000   0.00000000   0.00000000   0.00000000   0.00048796   0.00000000   0.00000000   0.00000000   0.00000000   0.00000000
    0.01600576   0.00000000  -0.00163762   0.00000000   0.00000000   0.00000000   1.00061459   0.00000000   0.00000000   0.00000000


 **********************************************************************************************************************************
 DATASETS  * FILE   NREC   LENGTH (MB)   RECORD NAMES
              1      20      114.02       500      610      700      900      950      970     1000      129      960     1100   
                                          VAR    BASINP    GEOM    SYMINP    ZMAT    AOBASIS   BASIS     P2S    ABASIS      S 
                                         1400     1410     1200     1210     1080     1600     1650     1300     1700     1380   
                                           T        V       H0       H01     AOSYM     SMH    MOLCAS    ERIS     OPER     JKOP   

              2       5        5.47       700     1000      520     2140     6000   
                                         GEOM     BASIS   MCVARS    MCSCF    MRCI   

 PROGRAMS   *        TOTAL    MATROP    MATROP      MRCI     MULTI       INT
 CPU TIMES  *         7.14      0.01      0.00      2.03      1.08      3.91
 REAL TIME  *         8.09 SEC
 DISK USED  *       272.15 MB      
 **********************************************************************************************************************************

        MRCI            MULTI   
   -460.05564166   -459.83371072
 **********************************************************************************************************************************
 Variable memory released
