 argument  1 = CH3Cl-cc-pvdz.inp
                                         
                                         


              Northwest Computational Chemistry Package (NWChem) 6.6
              ------------------------------------------------------


                    Environmental Molecular Sciences Laboratory
                       Pacific Northwest National Laboratory
                                Richland, WA 99352

                              Copyright (c) 1994-2015
                       Pacific Northwest National Laboratory
                            Battelle Memorial Institute

             NWChem is an open-source computational chemistry package
                        distributed under the terms of the
                      Educational Community License (ECL) 2.0
             A copy of the license is included with this distribution
                              in the LICENSE.TXT file

                                  ACKNOWLEDGMENT
                                  --------------

            This software and its documentation were developed at the
            EMSL at Pacific Northwest National Laboratory, a multiprogram
            national laboratory, operated for the U.S. Department of Energy
            by Battelle under Contract Number DE-AC05-76RL01830. Support
            for this work was provided by the Department of Energy Office
            of Biological and Environmental Research, Office of Basic
            Energy Sciences, and the Office of Advanced Scientific Computing.


           Job information
           ---------------

    hostname        = localhost.localdomain
    program         = nwchem
    date            = Thu Jan  5 11:03:58 2017

    compiled        = Tue_Jan_03_15:41:25_2017
    source          = /scratch/soft-red/nwchem-6.6
    nwchem branch   = 6.6
    nwchem revision = 27746
    ga revision     = 10594
    input           = CH3Cl-cc-pvdz.inp
    prefix          = CH3Cl-cc-pvdz.
    data base       = ./CH3Cl-cc-pvdz.db
    status          = startup
    nproc           =        1
    time left       =     -1s



           Memory information
           ------------------

    heap     =   13107196 doubles =    100.0 Mbytes
    stack    =   13107201 doubles =    100.0 Mbytes
    global   =   26214400 doubles =    200.0 Mbytes (distinct from heap & stack)
    total    =   52428797 doubles =    400.0 Mbytes
    verify   = yes
    hardfail = no 


           Directory information
           ---------------------

  0 permanent = .
  0 scratch   = .




                                NWChem Input Module
                                -------------------


                      CH3Cl cc-pvdz SCF geometry optimization
                      ---------------------------------------
 C3V symmetry detected

          ------
          auto-z
          ------
  Looking for out-of-plane bends


                             Geometry "geometry" -> ""
                             -------------------------

 Output coordinates in a.u. (scale by  1.000000000 to convert to a.u.)

  No.       Tag          Charge          X              Y              Z
 ---- ---------------- ---------- -------------- -------------- --------------
    1 c                    6.0000    -0.00000000    -0.00000000    -2.11943845
    2 h                    1.0000    -1.38588095    -1.38588095    -2.81200950
    3 h                    1.0000     1.89314859    -0.50726763    -2.81200950
    4 h                    1.0000    -0.50726763     1.89314859    -2.81200950
    5 cl                  17.0000     0.00000000    -0.00000000     1.24427407

      Atomic Mass 
      ----------- 

      c                 12.000000
      h                  1.007825
      cl                34.968850


 Effective nuclear repulsion energy (a.u.)      51.1874595049

            Nuclear Dipole moment (a.u.) 
            ----------------------------
        X                 Y               Z
 ---------------- ---------------- ----------------
     0.0000000000    -0.0000000000    -0.0000000000

      Symmetry information
      --------------------

 Group name             C3v       
 Group number             17
 Group order               6
 No. of unique centers     3

      Symmetry unique atoms

     1    2    5



                                Z-matrix (autoz)
                                -------- 

 Units are Angstrom for bonds and degrees for angles

      Type          Name      I     J     K     L     M      Value
      ----------- --------  ----- ----- ----- ----- ----- ----------
    1 Stretch                  1     2                       1.10000
    2 Stretch                  1     3                       1.10000
    3 Stretch                  1     4                       1.10000
    4 Stretch                  1     5                       1.78000
    5 Bend                     2     1     3               109.48082
    6 Bend                     2     1     4               109.48082
    7 Bend                     2     1     5               109.46162
    8 Bend                     3     1     4               109.48082
    9 Bend                     3     1     5               109.46162
   10 Bend                     4     1     5               109.46162


            XYZ format geometry
            -------------------
     5
 geometry
 c                    -0.00000000    -0.00000000    -1.12155861
 h                    -0.73337667    -0.73337667    -1.48805145
 h                     1.00181116    -0.26843449    -1.48805145
 h                    -0.26843449     1.00181116    -1.48805145
 cl                    0.00000000    -0.00000000     0.65844153

 ==============================================================================
                                internuclear distances
 ------------------------------------------------------------------------------
       center one      |      center two      | atomic units |       a.u.
 ------------------------------------------------------------------------------
    2 h                |   1 c                |     2.07870  |     2.07870
    3 h                |   1 c                |     2.07870  |     2.07870
    4 h                |   1 c                |     2.07870  |     2.07870
    5 cl               |   1 c                |     3.36371  |     3.36371
 ------------------------------------------------------------------------------
                         number of included internuclear distances:          4
 ==============================================================================



 ==============================================================================
                                 internuclear angles
 ------------------------------------------------------------------------------
        center 1       |       center 2       |       center 3       |  degrees
 ------------------------------------------------------------------------------
    2 h                |   1 c                |   3 h                |   109.48
    2 h                |   1 c                |   4 h                |   109.48
    2 h                |   1 c                |   5 cl               |   109.46
    3 h                |   1 c                |   4 h                |   109.48
    3 h                |   1 c                |   5 cl               |   109.46
    4 h                |   1 c                |   5 cl               |   109.46
 ------------------------------------------------------------------------------
                            number of included internuclear angles:          6
 ==============================================================================



                      Basis "ao basis" -> "" (spherical)
                      -----
  c (Carbon)
  ----------
            Exponent  Coefficients 
       -------------- ---------------------------------------------------------
  1 S  6.66500000E+03  0.000692
  1 S  1.00000000E+03  0.005329
  1 S  2.28000000E+02  0.027077
  1 S  6.47100000E+01  0.101718
  1 S  2.10600000E+01  0.274740
  1 S  7.49500000E+00  0.448564
  1 S  2.79700000E+00  0.285074
  1 S  5.21500000E-01  0.015204

  2 S  6.66500000E+03 -0.000146
  2 S  1.00000000E+03 -0.001154
  2 S  2.28000000E+02 -0.005725
  2 S  6.47100000E+01 -0.023312
  2 S  2.10600000E+01 -0.063955
  2 S  7.49500000E+00 -0.149981
  2 S  2.79700000E+00 -0.127262
  2 S  5.21500000E-01  0.544529

  3 S  1.59600000E-01  1.000000

  4 P  9.43900000E+00  0.038109
  4 P  2.00200000E+00  0.209480
  4 P  5.45600000E-01  0.508557

  5 P  1.51700000E-01  1.000000

  6 D  5.50000000E-01  1.000000

  h (Hydrogen)
  ------------
            Exponent  Coefficients 
       -------------- ---------------------------------------------------------
  1 S  1.30100000E+01  0.019685
  1 S  1.96200000E+00  0.137977
  1 S  4.44600000E-01  0.478148

  2 S  1.22000000E-01  1.000000

  3 P  7.27000000E-01  1.000000

  cl (Chlorine)
  -------------
            Exponent  Coefficients 
       -------------- ---------------------------------------------------------
  1 S  1.27900000E+05  0.000241
  1 S  1.91700000E+04  0.001871
  1 S  4.36300000E+03  0.009708
  1 S  1.23600000E+03  0.039315
  1 S  4.03600000E+02  0.125932
  1 S  1.45700000E+02  0.299341
  1 S  5.68100000E+01  0.421886
  1 S  2.32300000E+01  0.237201
  1 S  6.64400000E+00  0.019153
  1 S  2.57500000E+00 -0.003348
  1 S  5.37100000E-01  0.000930

  2 S  1.27900000E+05 -0.000068
  2 S  1.91700000E+04 -0.000522
  2 S  4.36300000E+03 -0.002765
  2 S  1.23600000E+03 -0.011154
  2 S  4.03600000E+02 -0.038592
  2 S  1.45700000E+02 -0.099485
  2 S  5.68100000E+01 -0.201392
  2 S  2.32300000E+01 -0.130313
  2 S  6.64400000E+00  0.509443
  2 S  2.57500000E+00  0.610725
  2 S  5.37100000E-01  0.042155

  3 S  1.27900000E+05  0.000020
  3 S  1.91700000E+04  0.000158
  3 S  4.36300000E+03  0.000834
  3 S  1.23600000E+03  0.003399
  3 S  4.03600000E+02  0.011674
  3 S  1.45700000E+02  0.030962
  3 S  5.68100000E+01  0.062953
  3 S  2.32300000E+01  0.046026
  3 S  6.64400000E+00 -0.219312
  3 S  2.57500000E+00 -0.408773
  3 S  5.37100000E-01  0.638465

  4 S  1.93800000E-01  1.000000

  5 P  4.17600000E+02  0.005260
  5 P  9.83300000E+01  0.039833
  5 P  3.10400000E+01  0.164655
  5 P  1.11900000E+01  0.387322
  5 P  4.24900000E+00  0.457072
  5 P  1.62400000E+00  0.151636
  5 P  5.32200000E-01  0.001816

  6 P  4.17600000E+02 -0.001436
  6 P  9.83300000E+01 -0.010780
  6 P  3.10400000E+01 -0.047008
  6 P  1.11900000E+01 -0.111030
  6 P  4.24900000E+00 -0.153275
  6 P  1.62400000E+00  0.089461
  6 P  5.32200000E-01  0.579444

  7 P  1.62000000E-01  1.000000

  8 D  6.00000000E-01  1.000000



 Summary of "ao basis" -> "" (spherical)
 ------------------------------------------------------------------------------
       Tag                 Description            Shells   Functions and Types
 ---------------- ------------------------------  ------  ---------------------
 c                          cc-pvdz                  6       14   3s2p1d
 h                          cc-pvdz                  3        5   2s1p
 cl                         cc-pvdz                  8       18   4s3p1d




                           NWChem Geometry Optimization
                           ----------------------------




                      CH3Cl cc-pvdz SCF geometry optimization


 maximum gradient threshold         (gmax) =   0.000450
 rms gradient threshold             (grms) =   0.000300
 maximum cartesian step threshold   (xmax) =   0.001800
 rms cartesian step threshold       (xrms) =   0.001200
 fixed trust radius                (trust) =   0.300000
 maximum step size to saddle      (sadstp) =   0.100000
 energy precision                  (eprec) =   1.0D-07
 maximum number of steps          (nptopt) =   20
 initial hessian option           (inhess) =    0
 line search option               (linopt) =    1
 hessian update option            (modupd) =    1
 saddle point option              (modsad) =    0
 initial eigen-mode to follow     (moddir) =    0
 initial variable to follow       (vardir) =    0
 follow first negative mode     (firstneg) =    T
 apply conjugacy                    (opcg) =    F
 source of zmatrix                         =   autoz   


          -------------------
          Energy Minimization
          -------------------


 Names of Z-matrix variables 
    1              2              3              4              5         
    6              7              8              9             10         

 Variables with the same non-blank name are constrained to be equal


 Using diagonal initial Hessian 
 Scaling for Hessian diagonals: bonds = 1.00  angles = 0.25  torsions = 0.10

          --------
          Step   0
          --------


                         Geometry "geometry" -> "geometry"
                         ---------------------------------

 Output coordinates in a.u. (scale by  1.000000000 to convert to a.u.)

  No.       Tag          Charge          X              Y              Z
 ---- ---------------- ---------- -------------- -------------- --------------
    1 c                    6.0000    -0.00000000    -0.00000000    -2.11943845
    2 h                    1.0000    -1.38588095    -1.38588095    -2.81200950
    3 h                    1.0000     1.89314859    -0.50726763    -2.81200950
    4 h                    1.0000    -0.50726763     1.89314859    -2.81200950
    5 cl                  17.0000     0.00000000    -0.00000000     1.24427407

      Atomic Mass 
      ----------- 

      c                 12.000000
      h                  1.007825
      cl                34.968850


 Effective nuclear repulsion energy (a.u.)      51.1874595049

            Nuclear Dipole moment (a.u.) 
            ----------------------------
        X                 Y               Z
 ---------------- ---------------- ----------------
     0.0000000000    -0.0000000000    -0.0000000000

      Symmetry information
      --------------------

 Group name             C3v       
 Group number             17
 Group order               6
 No. of unique centers     3

      Symmetry unique atoms

     1    2    5

                                 NWChem SCF Module
                                 -----------------


                      CH3Cl cc-pvdz SCF geometry optimization



  ao basis        = "ao basis"
  functions       =    47
  atoms           =     5
  closed shells   =    13
  open shells     =     0
  charge          =   0.00
  wavefunction    = RHF 
  input vectors   = atomic
  output vectors  = ./CH3Cl-cc-pvdz.movecs
  use symmetry    = T
  symmetry adapt  = T


 Summary of "ao basis" -> "ao basis" (spherical)
 ------------------------------------------------------------------------------
       Tag                 Description            Shells   Functions and Types
 ---------------- ------------------------------  ------  ---------------------
 c                          cc-pvdz                  6       14   3s2p1d
 h                          cc-pvdz                  3        5   2s1p
 cl                         cc-pvdz                  8       18   4s3p1d


      Symmetry analysis of basis
      --------------------------

        a1         18
        a2          1
        e          28


 Forming initial guess at       0.0s


      Superposition of Atomic Density Guess
      -------------------------------------

 Sum of atomic energies:        -498.63902959

      Non-variational initial energy
      ------------------------------

 Total energy =    -499.341817
 1-e energy   =    -788.332080
 2-e energy   =     237.802803
 HOMO         =      -0.380004
 LUMO         =       0.062325


      Symmetry analysis of molecular orbitals - initial
      -------------------------------------------------

  Numbering of irreducible representations: 

     1 a1          2 a2          3 e       

  Orbital symmetries:

     1 a1          2 a1          3 a1          4 a1          5 e       
     6 e           7 a1          8 a1          9 e          10 e       
    11 a1         12 e          13 e          14 a1         15 a1      
    16 e          17 e          18 e          19 e          20 a1      
    21 a1         22 e          23 e       


 Starting SCF solution at       0.9s



 ----------------------------------------------
         Quadratically convergent ROHF

 Convergence threshold     :          1.000E-04
 Maximum no. of iterations :           30
 Final Fock-matrix accuracy:          1.000E-07
 ----------------------------------------------


 Integral file          = ./CH3Cl-cc-pvdz.aoints.0
 Record size in doubles =  65536        No. of integs per rec  =  43688
 Max. records in memory =      6        Max. records in file   = 415529
 No. of bits per label  =      8        No. of bits per value  =     64


 #quartets = 1.533D+04 #integrals = 1.975D+05 #direct =  0.0% #cached =100.0%


              iter       energy          gnorm     gmax       time
             ----- ------------------- --------- --------- --------
                 1     -499.0959345618  4.91D-01  1.67D-01      1.7
                 2     -499.1147168034  1.73D-01  8.09D-02      1.7
                 3     -499.1172339719  7.75D-03  2.69D-03      1.8
                 4     -499.1172427906  3.37D-05  7.96D-06      1.8


       Final RHF  results 
       ------------------ 

         Total SCF energy =   -499.117242790610
      One-electron energy =   -789.880383949110
      Two-electron energy =    239.575681653576
 Nuclear repulsion energy =     51.187459504925

        Time for solution =      0.9s



       Symmetry analysis of molecular orbitals - final
       -----------------------------------------------

  Numbering of irreducible representations: 

     1 a1          2 a2          3 e       

  Orbital symmetries:

     1 a1          2 a1          3 a1          4 a1          5 e       
     6 e           7 a1          8 a1          9 e          10 e       
    11 a1         12 e          13 e          14 a1         15 a1      
    16 e          17 e          18 e          19 e          20 a1      
    21 a1         22 e          23 e       

             Final eigenvalues
             -----------------

              1      
    1 -104.8183
    2  -11.3003
    3  -10.5451
    4   -8.0127
    5   -8.0093
    6   -8.0093
    7   -1.1266
    8   -0.9109
    9   -0.6110
   10   -0.6110
   11   -0.5451
   12   -0.4324
   13   -0.4324
   14    0.1680
   15    0.2277
   16    0.2418
   17    0.2418
   18    0.5842
   19    0.5842
   20    0.5910
   21    0.7261
   22    0.7823
   23    0.7823

                       ROHF Final Molecular Orbital Analysis
                       -------------------------------------

 Vector    4  Occ=2.000000D+00  E=-8.012734D+00  Symmetry=a1
              MO Center= -1.5D-24,  6.3D-25,  6.6D-01, r^2= 5.7D-02
   Bfn.  Coefficient  Atom+Function         Bfn.  Coefficient  Atom+Function  
  ----- ------------  ---------------      ----- ------------  ---------------
    36      0.999925  5 Cl pz         

 Vector    5  Occ=2.000000D+00  E=-8.009286D+00  Symmetry=e
              MO Center=  6.3D-09, -9.6D-09,  6.6D-01, r^2= 5.7D-02
   Bfn.  Coefficient  Atom+Function         Bfn.  Coefficient  Atom+Function  
  ----- ------------  ---------------      ----- ------------  ---------------
    34      0.994464  5 Cl px         

 Vector    6  Occ=2.000000D+00  E=-8.009286D+00  Symmetry=e
              MO Center= -6.3D-09,  9.6D-09,  6.6D-01, r^2= 5.7D-02
   Bfn.  Coefficient  Atom+Function         Bfn.  Coefficient  Atom+Function  
  ----- ------------  ---------------      ----- ------------  ---------------
    35      0.994464  5 Cl py         

 Vector    7  Occ=2.000000D+00  E=-1.126607D+00  Symmetry=a1
              MO Center= -5.3D-18, -6.8D-18,  7.7D-02, r^2= 1.2D+00
   Bfn.  Coefficient  Atom+Function         Bfn.  Coefficient  Atom+Function  
  ----- ------------  ---------------      ----- ------------  ---------------
    33      0.435432  5 Cl s                 32      0.428384  5 Cl s          
     2      0.210380  1 C  s          

 Vector    8  Occ=2.000000D+00  E=-9.108811D-01  Symmetry=a1
              MO Center= -9.5D-19,  3.7D-17, -7.4D-01, r^2= 2.0D+00
   Bfn.  Coefficient  Atom+Function         Bfn.  Coefficient  Atom+Function  
  ----- ------------  ---------------      ----- ------------  ---------------
    33     -0.327349  5 Cl s                  2      0.322442  1 C  s          
    32     -0.282497  5 Cl s                  3      0.244082  1 C  s          
    15      0.181757  2 H  s                 20      0.181757  3 H  s          
    25      0.181757  4 H  s          

 Vector    9  Occ=2.000000D+00  E=-6.109930D-01  Symmetry=e
              MO Center= -1.1D-01,  1.7D-01, -1.1D+00, r^2= 1.5D+00
   Bfn.  Coefficient  Atom+Function         Bfn.  Coefficient  Atom+Function  
  ----- ------------  ---------------      ----- ------------  ---------------
     5      0.414080  1 C  py                25      0.327306  4 H  s          
    15     -0.209042  2 H  s                  8      0.193656  1 C  py         
    38      0.192409  5 Cl py         

 Vector   10  Occ=2.000000D+00  E=-6.109930D-01  Symmetry=e
              MO Center=  1.1D-01, -1.7D-01, -1.1D+00, r^2= 1.5D+00
   Bfn.  Coefficient  Atom+Function         Bfn.  Coefficient  Atom+Function  
  ----- ------------  ---------------      ----- ------------  ---------------
     4      0.414080  1 C  px                20      0.309661  3 H  s          
    15     -0.257250  2 H  s                  7      0.193656  1 C  px         
    37      0.192409  5 Cl px         

 Vector   11  Occ=2.000000D+00  E=-5.451321D-01  Symmetry=a1
              MO Center= -1.9D-16, -4.1D-16,  3.9D-02, r^2= 1.9D+00
   Bfn.  Coefficient  Atom+Function         Bfn.  Coefficient  Atom+Function  
  ----- ------------  ---------------      ----- ------------  ---------------
    39      0.474158  5 Cl pz                 6     -0.350795  1 C  pz         
    42      0.296657  5 Cl pz                33      0.209898  5 Cl s          
     9     -0.165249  1 C  pz         

 Vector   12  Occ=2.000000D+00  E=-4.324394D-01  Symmetry=e
              MO Center= -2.2D-02,  3.2D-02,  4.0D-01, r^2= 1.7D+00
   Bfn.  Coefficient  Atom+Function         Bfn.  Coefficient  Atom+Function  
  ----- ------------  ---------------      ----- ------------  ---------------
    38      0.574219  5 Cl py                41      0.491275  5 Cl py         
    25     -0.164047  4 H  s                  5     -0.155663  1 C  py         

 Vector   13  Occ=2.000000D+00  E=-4.324394D-01  Symmetry=e
              MO Center=  2.2D-02, -3.2D-02,  4.0D-01, r^2= 1.7D+00
   Bfn.  Coefficient  Atom+Function         Bfn.  Coefficient  Atom+Function  
  ----- ------------  ---------------      ----- ------------  ---------------
    37      0.574219  5 Cl px                40      0.491275  5 Cl px         
     4     -0.155663  1 C  px                20     -0.155701  3 H  s          

 Vector   14  Occ=0.000000D+00  E= 1.679520D-01  Symmetry=a1
              MO Center= -1.9D-18,  3.4D-17, -1.3D+00, r^2= 4.5D+00
   Bfn.  Coefficient  Atom+Function         Bfn.  Coefficient  Atom+Function  
  ----- ------------  ---------------      ----- ------------  ---------------
     3      2.174909  1 C  s                 16     -0.871896  2 H  s          
    21     -0.871896  3 H  s                 26     -0.871896  4 H  s          
    42      0.481474  5 Cl pz                33     -0.349747  5 Cl s          
    39      0.173426  5 Cl pz         

 Vector   15  Occ=0.000000D+00  E= 2.277498D-01  Symmetry=a1
              MO Center=  2.3D-17,  2.2D-17, -4.9D-01, r^2= 3.5D+00
   Bfn.  Coefficient  Atom+Function         Bfn.  Coefficient  Atom+Function  
  ----- ------------  ---------------      ----- ------------  ---------------
     9      1.291461  1 C  pz                42      0.945684  5 Cl pz         
    33     -0.918943  5 Cl s                 16      0.584304  2 H  s          
    21      0.584304  3 H  s                 26      0.584304  4 H  s          
     6      0.380013  1 C  pz                 3     -0.369606  1 C  s          
    39      0.241515  5 Cl pz         

 Vector   16  Occ=0.000000D+00  E= 2.418307D-01  Symmetry=e
              MO Center=  1.8D-01, -6.8D-01, -1.6D+00, r^2= 4.0D+00
   Bfn.  Coefficient  Atom+Function         Bfn.  Coefficient  Atom+Function  
  ----- ------------  ---------------      ----- ------------  ---------------
    16      1.795064  2 H  s                 21     -1.793813  3 H  s          
     7      1.353216  1 C  px                 8      0.363469  1 C  py         
     4      0.298269  1 C  px                40     -0.158196  5 Cl px         

 Vector   17  Occ=0.000000D+00  E= 2.418307D-01  Symmetry=e
              MO Center= -1.8D-01,  6.8D-01, -1.6D+00, r^2= 4.0D+00
   Bfn.  Coefficient  Atom+Function         Bfn.  Coefficient  Atom+Function  
  ----- ------------  ---------------      ----- ------------  ---------------
    26      2.072039  4 H  s                  8     -1.353216  1 C  py         
    16     -1.034936  2 H  s                 21     -1.037103  3 H  s          
     7      0.363469  1 C  px                 5     -0.298269  1 C  py         
    41      0.158196  5 Cl py         

 Vector   18  Occ=0.000000D+00  E= 5.841926D-01  Symmetry=e
              MO Center=  6.8D-02, -5.6D-02, -9.4D-01, r^2= 2.6D+00
   Bfn.  Coefficient  Atom+Function         Bfn.  Coefficient  Atom+Function  
  ----- ------------  ---------------      ----- ------------  ---------------
     8      1.086867  1 C  py                25     -0.722479  4 H  s          
    15      0.562074  2 H  s                  5     -0.253050  1 C  py         
    44     -0.213108  5 Cl d -1              26      0.181991  4 H  s          
    41     -0.180992  5 Cl py                38     -0.173797  5 Cl py         
    20      0.160405  3 H  s          

 Vector   19  Occ=0.000000D+00  E= 5.841926D-01  Symmetry=e
              MO Center= -6.8D-02,  5.6D-02, -9.4D-01, r^2= 2.6D+00
   Bfn.  Coefficient  Atom+Function         Bfn.  Coefficient  Atom+Function  
  ----- ------------  ---------------      ----- ------------  ---------------
     7      1.086867  1 C  px                20     -0.741637  3 H  s          
    15      0.509734  2 H  s                  4     -0.253050  1 C  px         
    25      0.231904  4 H  s                 46      0.213108  5 Cl d  1       
    21      0.186817  3 H  s                 40     -0.180992  5 Cl px         
    37     -0.173797  5 Cl px         

 Vector   20  Occ=0.000000D+00  E= 5.909625D-01  Symmetry=a1
              MO Center= -9.8D-17,  2.6D-15, -1.1D+00, r^2= 2.6D+00
   Bfn.  Coefficient  Atom+Function         Bfn.  Coefficient  Atom+Function  
  ----- ------------  ---------------      ----- ------------  ---------------
     9      1.316930  1 C  pz                 6     -0.697524  1 C  pz         
    33     -0.483193  5 Cl s                 45     -0.362881  5 Cl d  0       
    15      0.254083  2 H  s                 20      0.254083  3 H  s          
    25      0.254083  4 H  s                  2     -0.234166  1 C  s          

 Vector   21  Occ=0.000000D+00  E= 7.260996D-01  Symmetry=a1
              MO Center=  1.2D-15, -4.0D-16,  1.0D+00, r^2= 2.4D+00
   Bfn.  Coefficient  Atom+Function         Bfn.  Coefficient  Atom+Function  
  ----- ------------  ---------------      ----- ------------  ---------------
    42      1.538379  5 Cl pz                39     -0.964581  5 Cl pz         
     3      0.820028  1 C  s                  9      0.765457  1 C  pz         
    32     -0.388641  5 Cl s                  6     -0.331565  1 C  pz         
    33     -0.298480  5 Cl s                 31     -0.191863  5 Cl s          
    12      0.190204  1 C  d  0               2     -0.172803  1 C  s          

 Vector   22  Occ=0.000000D+00  E= 7.822737D-01  Symmetry=e
              MO Center=  2.7D-03,  1.2D-02,  6.7D-01, r^2= 2.3D+00
   Bfn.  Coefficient  Atom+Function         Bfn.  Coefficient  Atom+Function  
  ----- ------------  ---------------      ----- ------------  ---------------
    41      1.112357  5 Cl py                38     -0.951918  5 Cl py         
    40     -0.610365  5 Cl px                37      0.522330  5 Cl px         
     8     -0.457668  1 C  py                 7      0.251129  1 C  px         
    44      0.173340  5 Cl d -1              35     -0.164210  5 Cl py         
     5      0.162544  1 C  py                26      0.150858  4 H  s          

 Vector   23  Occ=0.000000D+00  E= 7.822737D-01  Symmetry=e
              MO Center= -2.7D-03, -1.2D-02,  6.7D-01, r^2= 2.3D+00
   Bfn.  Coefficient  Atom+Function         Bfn.  Coefficient  Atom+Function  
  ----- ------------  ---------------      ----- ------------  ---------------
    40      1.112357  5 Cl px                37     -0.951918  5 Cl px         
    41      0.610365  5 Cl py                38     -0.522330  5 Cl py         
     7     -0.457668  1 C  px                 8     -0.251129  1 C  py         
    46     -0.173340  5 Cl d  1              34     -0.164210  5 Cl px         
     4      0.162544  1 C  px         


 center of mass
 --------------
 x =   0.00000000 y =   0.00000000 z =   0.19154003

 moments of inertia (a.u.)
 ------------------
         135.924440060704           0.000000000000           0.000000000000
           0.000000000000         135.924440060704           0.000000000000
           0.000000000000           0.000000000000          11.614171342303

  Mulliken analysis of the total density
  --------------------------------------

    Atom       Charge   Shell Charges
 -----------   ------   -------------------------------------------------------
    1 C    6     6.07   2.00  0.66  0.48  1.96  0.90  0.07
    2 H    1     0.91   0.74  0.14  0.03
    3 H    1     0.91   0.74  0.14  0.03
    4 H    1     0.91   0.74  0.14  0.03
    5 Cl  17    17.19   2.00  2.01  0.93  1.00  6.00  3.03  2.18  0.04

       Multipole analysis of the density wrt the origin
       ------------------------------------------------

     L   x y z        total         open         nuclear
     -   - - -        -----         ----         -------
     0   0 0 0     -0.000000      0.000000     26.000000

     1   1 0 0      0.000000      0.000000      0.000000
     1   0 1 0     -0.000000      0.000000     -0.000000
     1   0 0 1     -0.840853      0.000000     -0.000000

     2   2 0 0    -14.786042      0.000000      5.761998
     2   1 1 0     -0.000000      0.000000      0.000000
     2   1 0 1     -0.000000      0.000000     -0.000000
     2   0 2 0    -14.786042      0.000000      5.761998
     2   0 1 1      0.000000      0.000000     -0.000000
     2   0 0 2    -13.449169      0.000000     76.994014


 Parallel integral file used       5 records with       0 large values

                              NWChem Gradients Module
                              -----------------------


                      CH3Cl cc-pvdz SCF geometry optimization


  wavefunction    =   RHF     

  Using symmetry


                         RHF ENERGY GRADIENTS

    atom               coordinates                        gradient
                 x          y          z           x          y          z
   1 c      -0.000000  -0.000000  -2.119438    0.000000   0.000000   0.018479
   2 h      -1.385881  -1.385881  -2.812009   -0.005940  -0.005940  -0.005678
   3 h       1.893149  -0.507268  -2.812009    0.008114  -0.002174  -0.005678
   4 h      -0.507268   1.893149  -2.812009   -0.002174   0.008114  -0.005678
   5 cl      0.000000  -0.000000   1.244274   -0.000000  -0.000000  -0.001444

                 ----------------------------------------
                 |  Time  |  1-e(secs)   |  2-e(secs)   |
                 ----------------------------------------
                 |  CPU   |       0.00   |       5.91   |
                 ----------------------------------------
                 |  WALL  |       0.00   |       5.92   |
                 ----------------------------------------

@ Step       Energy      Delta E   Gmax     Grms     Xrms     Xmax   Walltime
@ ---- ---------------- -------- -------- -------- -------- -------- --------
@    0    -499.11724279  0.0D+00  0.00981  0.00550  0.00000  0.00000      7.8
                                                                    



                                Z-matrix (autoz)
                                -------- 

 Units are Angstrom for bonds and degrees for angles

      Type          Name      I     J     K     L     M      Value     Gradient
      ----------- --------  ----- ----- ----- ----- ----- ---------- ----------
    1 Stretch                  1     2                       1.10000    0.00981
    2 Stretch                  1     3                       1.10000    0.00981
    3 Stretch                  1     4                       1.10000    0.00981
    4 Stretch                  1     5                       1.78000   -0.00144
    5 Bend                     2     1     3               109.48082   -0.00141
    6 Bend                     2     1     4               109.48082   -0.00141
    7 Bend                     2     1     5               109.46162    0.00141
    8 Bend                     3     1     4               109.48082   -0.00141
    9 Bend                     3     1     5               109.46162    0.00141
   10 Bend                     4     1     5               109.46162    0.00141

                                 NWChem SCF Module
                                 -----------------


                      CH3Cl cc-pvdz SCF geometry optimization



  ao basis        = "ao basis"
  functions       =    47
  atoms           =     5
  closed shells   =    13
  open shells     =     0
  charge          =   0.00
  wavefunction    = RHF 
  input vectors   = ./CH3Cl-cc-pvdz.movecs
  output vectors  = ./CH3Cl-cc-pvdz.movecs
  use symmetry    = T
  symmetry adapt  = T


 Summary of "ao basis" -> "ao basis" (spherical)
 ------------------------------------------------------------------------------
       Tag                 Description            Shells   Functions and Types
 ---------------- ------------------------------  ------  ---------------------
 c                          cc-pvdz                  6       14   3s2p1d
 h                          cc-pvdz                  3        5   2s1p
 cl                         cc-pvdz                  8       18   4s3p1d


      Symmetry analysis of basis
      --------------------------

        a1         18
        a2          1
        e          28


 Forming initial guess at       7.9s


 Loading old vectors from job with title :

CH3Cl cc-pvdz SCF geometry optimization


      Symmetry analysis of molecular orbitals - initial
      -------------------------------------------------

  Numbering of irreducible representations: 

     1 a1          2 a2          3 e       

  Orbital symmetries:

     1 a1          2 a1          3 a1          4 a1          5 e       
     6 e           7 a1          8 a1          9 e          10 e       
    11 a1         12 e          13 e          14 a1         15 a1      
    16 e          17 e          18 e          19 e          20 a1      
    21 a1         22 e          23 e       


 Starting SCF solution at       7.9s



 ----------------------------------------------
         Quadratically convergent ROHF

 Convergence threshold     :          1.000E-04
 Maximum no. of iterations :           30
 Final Fock-matrix accuracy:          1.000E-07
 ----------------------------------------------


 Integral file          = ./CH3Cl-cc-pvdz.aoints.0
 Record size in doubles =  65536        No. of integs per rec  =  43688
 Max. records in memory =      6        Max. records in file   = 415529
 No. of bits per label  =      8        No. of bits per value  =     64


 #quartets = 1.533D+04 #integrals = 1.975D+05 #direct =  0.0% #cached =100.0%


              iter       energy          gnorm     gmax       time
             ----- ------------------- --------- --------- --------
                 1     -499.1176576346  3.87D-02  1.27D-02      8.7
                 2     -499.1178027761  7.28D-04  2.78D-04      8.7
                 3     -499.1178028560  2.04D-06  7.69D-07      8.7


       Final RHF  results 
       ------------------ 

         Total SCF energy =   -499.117802856037
      One-electron energy =   -790.250857337623
      Two-electron energy =    239.759354084156
 Nuclear repulsion energy =     51.373700397431

        Time for solution =      0.9s



       Symmetry analysis of molecular orbitals - final
       -----------------------------------------------

  Numbering of irreducible representations: 

     1 a1          2 a2          3 e       

  Orbital symmetries:

     1 a1          2 a1          3 a1          4 a1          5 e       
     6 e           7 a1          8 a1          9 e          10 e       
    11 a1         12 e          13 e          14 a1         15 a1      
    16 e          17 e          18 e          19 e          20 a1      
    21 a1         22 e          23 e       

             Final eigenvalues
             -----------------

              1      
    1 -104.8167
    2  -11.2961
    3  -10.5436
    4   -8.0112
    5   -8.0078
    6   -8.0078
    7   -1.1268
    8   -0.9150
    9   -0.6169
   10   -0.6169
   11   -0.5428
   12   -0.4322
   13   -0.4322
   14    0.1695
   15    0.2271
   16    0.2437
   17    0.2437
   18    0.5840
   19    0.5840
   20    0.5905
   21    0.7260
   22    0.7831
   23    0.7831

                       ROHF Final Molecular Orbital Analysis
                       -------------------------------------

 Vector    4  Occ=2.000000D+00  E=-8.011181D+00  Symmetry=a1
              MO Center= -9.8D-25, -3.8D-24,  6.5D-01, r^2= 5.7D-02
   Bfn.  Coefficient  Atom+Function         Bfn.  Coefficient  Atom+Function  
  ----- ------------  ---------------      ----- ------------  ---------------
    36      0.999924  5 Cl pz         

 Vector    5  Occ=2.000000D+00  E=-8.007752D+00  Symmetry=e
              MO Center= -1.0D-08,  1.5D-08,  6.5D-01, r^2= 5.7D-02
   Bfn.  Coefficient  Atom+Function         Bfn.  Coefficient  Atom+Function  
  ----- ------------  ---------------      ----- ------------  ---------------
    35      0.996003  5 Cl py         

 Vector    6  Occ=2.000000D+00  E=-8.007752D+00  Symmetry=e
              MO Center=  1.0D-08, -1.5D-08,  6.5D-01, r^2= 5.7D-02
   Bfn.  Coefficient  Atom+Function         Bfn.  Coefficient  Atom+Function  
  ----- ------------  ---------------      ----- ------------  ---------------
    34      0.996003  5 Cl px         

 Vector    7  Occ=2.000000D+00  E=-1.126843D+00  Symmetry=a1
              MO Center=  4.6D-18,  1.1D-17,  4.6D-02, r^2= 1.2D+00
   Bfn.  Coefficient  Atom+Function         Bfn.  Coefficient  Atom+Function  
  ----- ------------  ---------------      ----- ------------  ---------------
    33      0.432740  5 Cl s                 32      0.423867  5 Cl s          
     2      0.213372  1 C  s          

 Vector    8  Occ=2.000000D+00  E=-9.149603D-01  Symmetry=a1
              MO Center=  1.1D-17,  2.7D-19, -7.3D-01, r^2= 2.0D+00
   Bfn.  Coefficient  Atom+Function         Bfn.  Coefficient  Atom+Function  
  ----- ------------  ---------------      ----- ------------  ---------------
    33     -0.331588  5 Cl s                  2      0.318901  1 C  s          
    32     -0.288894  5 Cl s                  3      0.235119  1 C  s          
    15      0.183255  2 H  s                 20      0.183255  3 H  s          
    25      0.183255  4 H  s          

 Vector    9  Occ=2.000000D+00  E=-6.169315D-01  Symmetry=e
              MO Center= -1.2D-01,  1.7D-01, -1.1D+00, r^2= 1.5D+00
   Bfn.  Coefficient  Atom+Function         Bfn.  Coefficient  Atom+Function  
  ----- ------------  ---------------      ----- ------------  ---------------
     5      0.418438  1 C  py                25      0.330408  4 H  s          
    15     -0.216118  2 H  s                  8      0.190678  1 C  py         
    38      0.184642  5 Cl py         

 Vector   10  Occ=2.000000D+00  E=-6.169315D-01  Symmetry=e
              MO Center=  1.2D-01, -1.7D-01, -1.1D+00, r^2= 1.5D+00
   Bfn.  Coefficient  Atom+Function         Bfn.  Coefficient  Atom+Function  
  ----- ------------  ---------------      ----- ------------  ---------------
     4      0.418438  1 C  px                20      0.315537  3 H  s          
    15     -0.256746  2 H  s                  7      0.190678  1 C  px         
    37      0.184642  5 Cl px         

 Vector   11  Occ=2.000000D+00  E=-5.428210D-01  Symmetry=a1
              MO Center=  6.0D-17,  1.0D-16,  3.6D-02, r^2= 1.9D+00
   Bfn.  Coefficient  Atom+Function         Bfn.  Coefficient  Atom+Function  
  ----- ------------  ---------------      ----- ------------  ---------------
    39      0.475355  5 Cl pz                 6     -0.350046  1 C  pz         
    42      0.298532  5 Cl pz                33      0.208925  5 Cl s          
     9     -0.166244  1 C  pz         

 Vector   12  Occ=2.000000D+00  E=-4.322327D-01  Symmetry=e
              MO Center=  2.0D-02, -2.9D-02,  4.1D-01, r^2= 1.7D+00
   Bfn.  Coefficient  Atom+Function         Bfn.  Coefficient  Atom+Function  
  ----- ------------  ---------------      ----- ------------  ---------------
    37      0.576636  5 Cl px                40      0.493541  5 Cl px         
     4     -0.152110  1 C  px                20     -0.151903  3 H  s          

 Vector   13  Occ=2.000000D+00  E=-4.322327D-01  Symmetry=e
              MO Center= -2.0D-02,  2.9D-02,  4.1D-01, r^2= 1.7D+00
   Bfn.  Coefficient  Atom+Function         Bfn.  Coefficient  Atom+Function  
  ----- ------------  ---------------      ----- ------------  ---------------
    38      0.576636  5 Cl py                41      0.493541  5 Cl py         
    25     -0.159797  4 H  s                  5     -0.152110  1 C  py         

 Vector   14  Occ=0.000000D+00  E= 1.695135D-01  Symmetry=a1
              MO Center=  5.2D-17,  1.0D-18, -1.3D+00, r^2= 4.5D+00
   Bfn.  Coefficient  Atom+Function         Bfn.  Coefficient  Atom+Function  
  ----- ------------  ---------------      ----- ------------  ---------------
     3      2.202545  1 C  s                 16     -0.877795  2 H  s          
    21     -0.877795  3 H  s                 26     -0.877795  4 H  s          
    42      0.489035  5 Cl pz                33     -0.358808  5 Cl s          
    39      0.174228  5 Cl pz         

 Vector   15  Occ=0.000000D+00  E= 2.270927D-01  Symmetry=a1
              MO Center= -6.3D-17, -3.3D-17, -5.2D-01, r^2= 3.5D+00
   Bfn.  Coefficient  Atom+Function         Bfn.  Coefficient  Atom+Function  
  ----- ------------  ---------------      ----- ------------  ---------------
     9      1.279414  1 C  pz                42      0.933758  5 Cl pz         
    33     -0.908150  5 Cl s                 16      0.596320  2 H  s          
    21      0.596320  3 H  s                 26      0.596320  4 H  s          
     3     -0.421651  1 C  s                  6      0.378678  1 C  pz         
    39      0.240423  5 Cl pz         

 Vector   16  Occ=0.000000D+00  E= 2.436995D-01  Symmetry=e
              MO Center= -2.0D-01, -6.9D-01, -1.6D+00, r^2= 4.0D+00
   Bfn.  Coefficient  Atom+Function         Bfn.  Coefficient  Atom+Function  
  ----- ------------  ---------------      ----- ------------  ---------------
    16      2.056475  2 H  s                 21     -1.488776  3 H  s          
     7      1.225264  1 C  px                 8      0.721779  1 C  py         
    26     -0.567699  4 H  s                  4      0.262376  1 C  px         
     5      0.154560  1 C  py         

 Vector   17  Occ=0.000000D+00  E= 2.436995D-01  Symmetry=e
              MO Center=  2.0D-01,  6.9D-01, -1.6D+00, r^2= 4.0D+00
   Bfn.  Coefficient  Atom+Function         Bfn.  Coefficient  Atom+Function  
  ----- ------------  ---------------      ----- ------------  ---------------
    26      2.046851  4 H  s                 21     -1.515068  3 H  s          
     8     -1.225264  1 C  py                 7      0.721779  1 C  px         
    16     -0.531784  2 H  s                  5     -0.262376  1 C  py         
     4      0.154560  1 C  px         

 Vector   18  Occ=0.000000D+00  E= 5.840198D-01  Symmetry=e
              MO Center=  9.2D-03, -1.1D-01, -9.4D-01, r^2= 2.6D+00
   Bfn.  Coefficient  Atom+Function         Bfn.  Coefficient  Atom+Function  
  ----- ------------  ---------------      ----- ------------  ---------------
     8      1.083524  1 C  py                25     -0.749372  4 H  s          
    20      0.433672  3 H  s                  7     -0.398517  1 C  px         
    15      0.315700  2 H  s                  5     -0.247329  1 C  py         
    44     -0.198369  5 Cl d -1              41     -0.182293  5 Cl py         
    38     -0.156091  5 Cl py         

 Vector   19  Occ=0.000000D+00  E= 5.840198D-01  Symmetry=e
              MO Center= -9.2D-03,  1.1D-01, -9.4D-01, r^2= 2.6D+00
   Bfn.  Coefficient  Atom+Function         Bfn.  Coefficient  Atom+Function  
  ----- ------------  ---------------      ----- ------------  ---------------
     7      1.083524  1 C  px                15      0.683031  2 H  s          
    20     -0.614920  3 H  s                  8      0.398517  1 C  py         
     4     -0.247329  1 C  px                46      0.198369  5 Cl d  1       
    40     -0.182293  5 Cl px                37     -0.156091  5 Cl px         

 Vector   20  Occ=0.000000D+00  E= 5.905227D-01  Symmetry=a1
              MO Center= -1.4D-15,  3.6D-16, -1.2D+00, r^2= 2.6D+00
   Bfn.  Coefficient  Atom+Function         Bfn.  Coefficient  Atom+Function  
  ----- ------------  ---------------      ----- ------------  ---------------
     9      1.304419  1 C  pz                 6     -0.698875  1 C  pz         
    33     -0.474890  5 Cl s                 45     -0.361166  5 Cl d  0       
    15      0.256411  2 H  s                 20      0.256411  3 H  s          
    25      0.256411  4 H  s                  2     -0.222377  1 C  s          

 Vector   21  Occ=0.000000D+00  E= 7.259943D-01  Symmetry=a1
              MO Center=  1.4D-15,  1.2D-15,  1.0D+00, r^2= 2.4D+00
   Bfn.  Coefficient  Atom+Function         Bfn.  Coefficient  Atom+Function  
  ----- ------------  ---------------      ----- ------------  ---------------
    42      1.542174  5 Cl pz                39     -0.961121  5 Cl pz         
     3      0.832003  1 C  s                  9      0.777310  1 C  pz         
    32     -0.386756  5 Cl s                  6     -0.334346  1 C  pz         
    33     -0.309549  5 Cl s                 12      0.190306  1 C  d  0       
    31     -0.189620  5 Cl s                  2     -0.176498  1 C  s          

 Vector   22  Occ=0.000000D+00  E= 7.831345D-01  Symmetry=e
              MO Center=  4.4D-03, -1.2D-02,  6.6D-01, r^2= 2.3D+00
   Bfn.  Coefficient  Atom+Function         Bfn.  Coefficient  Atom+Function  
  ----- ------------  ---------------      ----- ------------  ---------------
    40      1.237401  5 Cl px                37     -1.062972  5 Cl px         
     7     -0.495761  1 C  px                41      0.277782  5 Cl py         
    38     -0.238625  5 Cl py                46     -0.186320  5 Cl d  1       
    34     -0.183205  5 Cl px                 4      0.173887  1 C  px         

 Vector   23  Occ=0.000000D+00  E= 7.831345D-01  Symmetry=e
              MO Center= -4.4D-03,  1.2D-02,  6.6D-01, r^2= 2.3D+00
   Bfn.  Coefficient  Atom+Function         Bfn.  Coefficient  Atom+Function  
  ----- ------------  ---------------      ----- ------------  ---------------
    41      1.237401  5 Cl py                38     -1.062972  5 Cl py         
     8     -0.495761  1 C  py                40     -0.277782  5 Cl px         
    37      0.238625  5 Cl px                44      0.186320  5 Cl d -1       
    35     -0.183205  5 Cl py                 5      0.173887  1 C  py         


 center of mass
 --------------
 x =   0.00000000 y =   0.00000000 z =   0.17391681

 moments of inertia (a.u.)
 ------------------
         135.465507507429           0.000000000000           0.000000000000
           0.000000000000         135.465507507429           0.000000000000
           0.000000000000           0.000000000000          11.402541790114

  Mulliken analysis of the total density
  --------------------------------------

    Atom       Charge   Shell Charges
 -----------   ------   -------------------------------------------------------
    1 C    6     6.05   2.00  0.66  0.47  1.97  0.88  0.07
    2 H    1     0.92   0.75  0.14  0.03
    3 H    1     0.92   0.75  0.14  0.03
    4 H    1     0.92   0.75  0.14  0.03
    5 Cl  17    17.19   2.00  2.01  0.92  1.00  6.00  3.03  2.19  0.04

       Multipole analysis of the density wrt the origin
       ------------------------------------------------

     L   x y z        total         open         nuclear
     -   - - -        -----         ----         -------
     0   0 0 0     -0.000000      0.000000     26.000000

     1   1 0 0     -0.000000      0.000000      0.000000
     1   0 1 0     -0.000000      0.000000      0.000000
     1   0 0 1     -0.855532      0.000000     -0.411011

     2   2 0 0    -14.747285      0.000000      5.657005
     2   1 1 0     -0.000000      0.000000      0.000000
     2   1 0 1     -0.000000      0.000000     -0.000000
     2   0 2 0    -14.747285      0.000000      5.657005
     2   0 1 1     -0.000000      0.000000     -0.000000
     2   0 0 2    -13.431212      0.000000     76.563676


 Parallel integral file used       5 records with       0 large values

 Line search: 
     step= 1.00 grad=-1.1D-03 hess= 5.2D-04 energy=   -499.117803 mode=accept  
 new step= 1.00                   predicted energy=   -499.117803

          --------
          Step   1
          --------


                         Geometry "geometry" -> "geometry"
                         ---------------------------------

 Output coordinates in a.u. (scale by  1.000000000 to convert to a.u.)

  No.       Tag          Charge          X              Y              Z
 ---- ---------------- ---------- -------------- -------------- --------------
    1 c                    6.0000     0.00000000     0.00000000    -2.14218639
    2 h                    1.0000    -1.37319637    -1.37319637    -2.79823370
    3 h                    1.0000     1.87582113    -0.50262476    -2.79823370
    4 h                    1.0000    -0.50262476     1.87582113    -2.79823370
    5 cl                  17.0000     0.00000000     0.00000000     1.22569464

      Atomic Mass 
      ----------- 

      c                 12.000000
      h                  1.007825
      cl                34.968850


 Effective nuclear repulsion energy (a.u.)      51.3737003974

            Nuclear Dipole moment (a.u.) 
            ----------------------------
        X                 Y               Z
 ---------------- ---------------- ----------------
     0.0000000000     0.0000000000    -0.4110106070

      Symmetry information
      --------------------

 Group name             C3v       
 Group number             17
 Group order               6
 No. of unique centers     3

      Symmetry unique atoms

     1    2    5

                                 NWChem SCF Module
                                 -----------------


                      CH3Cl cc-pvdz SCF geometry optimization



  ao basis        = "ao basis"
  functions       =    47
  atoms           =     5
  closed shells   =    13
  open shells     =     0
  charge          =   0.00
  wavefunction    = RHF 
  input vectors   = ./CH3Cl-cc-pvdz.movecs
  output vectors  = ./CH3Cl-cc-pvdz.movecs
  use symmetry    = T
  symmetry adapt  = T


 Summary of "ao basis" -> "ao basis" (spherical)
 ------------------------------------------------------------------------------
       Tag                 Description            Shells   Functions and Types
 ---------------- ------------------------------  ------  ---------------------
 c                          cc-pvdz                  6       14   3s2p1d
 h                          cc-pvdz                  3        5   2s1p
 cl                         cc-pvdz                  8       18   4s3p1d


      Symmetry analysis of basis
      --------------------------

        a1         18
        a2          1
        e          28


  The SCF is already converged 

         Total SCF energy =   -499.117802856037

                              NWChem Gradients Module
                              -----------------------


                      CH3Cl cc-pvdz SCF geometry optimization


  wavefunction    =   RHF     

  Using symmetry


                         RHF ENERGY GRADIENTS

    atom               coordinates                        gradient
                 x          y          z           x          y          z
   1 c       0.000000   0.000000  -2.142186   -0.000000   0.000000   0.004815
   2 h      -1.373196  -1.373196  -2.798234    0.000659   0.000659  -0.000624
   3 h       1.875821  -0.502625  -2.798234   -0.000900   0.000241  -0.000624
   4 h      -0.502625   1.875821  -2.798234    0.000241  -0.000900  -0.000624
   5 cl      0.000000   0.000000   1.225695   -0.000000  -0.000000  -0.002942

                 ----------------------------------------
                 |  Time  |  1-e(secs)   |  2-e(secs)   |
                 ----------------------------------------
                 |  CPU   |       0.00   |       5.93   |
                 ----------------------------------------
                 |  WALL  |       0.00   |       5.94   |
                 ----------------------------------------

  Step       Energy      Delta E   Gmax     Grms     Xrms     Xmax   Walltime
  ---- ---------------- -------- -------- -------- -------- -------- --------
@    1    -499.11780286 -5.6D-04  0.00294  0.00107  0.01269  0.02268     14.8
                                                                    



                                Z-matrix (autoz)
                                -------- 

 Units are Angstrom for bonds and degrees for angles

      Type          Name      I     J     K     L     M      Value     Gradient
      ----------- --------  ----- ----- ----- ----- ----- ---------- ----------
    1 Stretch                  1     2                       1.08471   -0.00068
    2 Stretch                  1     3                       1.08471   -0.00068
    3 Stretch                  1     4                       1.08471   -0.00068
    4 Stretch                  1     5                       1.78221   -0.00294
    5 Bend                     2     1     3               110.26422   -0.00048
    6 Bend                     2     1     4               110.26422   -0.00048
    7 Bend                     2     1     5               108.66608    0.00050
    8 Bend                     3     1     4               110.26422   -0.00048
    9 Bend                     3     1     5               108.66608    0.00050
   10 Bend                     4     1     5               108.66608    0.00050

                                 NWChem SCF Module
                                 -----------------


                      CH3Cl cc-pvdz SCF geometry optimization



  ao basis        = "ao basis"
  functions       =    47
  atoms           =     5
  closed shells   =    13
  open shells     =     0
  charge          =   0.00
  wavefunction    = RHF 
  input vectors   = ./CH3Cl-cc-pvdz.movecs
  output vectors  = ./CH3Cl-cc-pvdz.movecs
  use symmetry    = T
  symmetry adapt  = T


 Summary of "ao basis" -> "ao basis" (spherical)
 ------------------------------------------------------------------------------
       Tag                 Description            Shells   Functions and Types
 ---------------- ------------------------------  ------  ---------------------
 c                          cc-pvdz                  6       14   3s2p1d
 h                          cc-pvdz                  3        5   2s1p
 cl                         cc-pvdz                  8       18   4s3p1d


      Symmetry analysis of basis
      --------------------------

        a1         18
        a2          1
        e          28


 Forming initial guess at      14.9s


 Loading old vectors from job with title :

CH3Cl cc-pvdz SCF geometry optimization


      Symmetry analysis of molecular orbitals - initial
      -------------------------------------------------

  Numbering of irreducible representations: 

     1 a1          2 a2          3 e       

  Orbital symmetries:

     1 a1          2 a1          3 a1          4 a1          5 e       
     6 e           7 a1          8 a1          9 e          10 e       
    11 a1         12 e          13 e          14 a1         15 a1      
    16 e          17 e          18 e          19 e          20 a1      
    21 a1         22 e          23 e       


 Starting SCF solution at      14.9s



 ----------------------------------------------
         Quadratically convergent ROHF

 Convergence threshold     :          1.000E-04
 Maximum no. of iterations :           30
 Final Fock-matrix accuracy:          1.000E-07
 ----------------------------------------------


 Integral file          = ./CH3Cl-cc-pvdz.aoints.0
 Record size in doubles =  65536        No. of integs per rec  =  43688
 Max. records in memory =      6        Max. records in file   = 415529
 No. of bits per label  =      8        No. of bits per value  =     64


 #quartets = 1.533D+04 #integrals = 1.975D+05 #direct =  0.0% #cached =100.0%


              iter       energy          gnorm     gmax       time
             ----- ------------------- --------- --------- --------
                 1     -499.1178330096  1.01D-02  4.94D-03     15.6
                 2     -499.1178438629  4.80D-05  2.53D-05     15.7


       Final RHF  results 
       ------------------ 

         Total SCF energy =   -499.117843862940
      One-electron energy =   -790.090008983045
      Two-electron energy =    239.682747207412
 Nuclear repulsion energy =     51.289417912693

        Time for solution =      0.9s



       Symmetry analysis of molecular orbitals - final
       -----------------------------------------------

  Numbering of irreducible representations: 

     1 a1          2 a2          3 e       

  Orbital symmetries:

     1 a1          2 a1          3 a1          4 a1          5 e       
     6 e           7 a1          8 a1          9 e          10 e       
    11 a1         12 e          13 e          14 a1         15 a1      
    16 e          17 e          18 e          19 e          20 a1      
    21 a1         22 e          23 e       

             Final eigenvalues
             -----------------

              1      
    1 -104.8163
    2  -11.2969
    3  -10.5431
    4   -8.0107
    5   -8.0073
    6   -8.0073
    7   -1.1256
    8   -0.9150
    9   -0.6174
   10   -0.6174
   11   -0.5410
   12   -0.4321
   13   -0.4321
   14    0.1691
   15    0.2256
   16    0.2435
   17    0.2435
   18    0.5841
   19    0.5841
   20    0.5913
   21    0.7257
   22    0.7835
   23    0.7835

                       ROHF Final Molecular Orbital Analysis
                       -------------------------------------

 Vector    4  Occ=2.000000D+00  E=-8.010705D+00  Symmetry=a1
              MO Center=  5.7D-21,  1.1D-20,  6.5D-01, r^2= 5.7D-02
   Bfn.  Coefficient  Atom+Function         Bfn.  Coefficient  Atom+Function  
  ----- ------------  ---------------      ----- ------------  ---------------
    36      0.999924  5 Cl pz         

 Vector    5  Occ=2.000000D+00  E=-8.007289D+00  Symmetry=e
              MO Center= -1.6D-08,  1.5D-08,  6.5D-01, r^2= 5.7D-02
   Bfn.  Coefficient  Atom+Function         Bfn.  Coefficient  Atom+Function  
  ----- ------------  ---------------      ----- ------------  ---------------
    35      0.999642  5 Cl py         

 Vector    6  Occ=2.000000D+00  E=-8.007289D+00  Symmetry=e
              MO Center=  1.6D-08, -1.5D-08,  6.5D-01, r^2= 5.7D-02
   Bfn.  Coefficient  Atom+Function         Bfn.  Coefficient  Atom+Function  
  ----- ------------  ---------------      ----- ------------  ---------------
    34      0.999642  5 Cl px         

 Vector    7  Occ=2.000000D+00  E=-1.125600D+00  Symmetry=a1
              MO Center= -4.9D-19,  4.7D-18,  4.6D-02, r^2= 1.2D+00
   Bfn.  Coefficient  Atom+Function         Bfn.  Coefficient  Atom+Function  
  ----- ------------  ---------------      ----- ------------  ---------------
    33      0.433308  5 Cl s                 32      0.423694  5 Cl s          
     2      0.213107  1 C  s          

 Vector    8  Occ=2.000000D+00  E=-9.149755D-01  Symmetry=a1
              MO Center= -1.3D-17, -2.0D-17, -7.3D-01, r^2= 2.0D+00
   Bfn.  Coefficient  Atom+Function         Bfn.  Coefficient  Atom+Function  
  ----- ------------  ---------------      ----- ------------  ---------------
    33     -0.332011  5 Cl s                  2      0.319226  1 C  s          
    32     -0.289299  5 Cl s                  3      0.235945  1 C  s          
    15      0.182973  2 H  s                 20      0.182973  3 H  s          
    25      0.182973  4 H  s          

 Vector    9  Occ=2.000000D+00  E=-6.174003D-01  Symmetry=e
              MO Center= -1.3D-01,  1.6D-01, -1.1D+00, r^2= 1.5D+00
   Bfn.  Coefficient  Atom+Function         Bfn.  Coefficient  Atom+Function  
  ----- ------------  ---------------      ----- ------------  ---------------
     5      0.420062  1 C  py                25      0.328406  4 H  s          
    15     -0.227001  2 H  s                  8      0.191192  1 C  py         
    38      0.182841  5 Cl py         

 Vector   10  Occ=2.000000D+00  E=-6.174003D-01  Symmetry=e
              MO Center=  1.3D-01, -1.6D-01, -1.1D+00, r^2= 1.5D+00
   Bfn.  Coefficient  Atom+Function         Bfn.  Coefficient  Atom+Function  
  ----- ------------  ---------------      ----- ------------  ---------------
     4      0.420062  1 C  px                20      0.320664  3 H  s          
    15     -0.248151  2 H  s                  7      0.191192  1 C  px         
    37      0.182841  5 Cl px         

 Vector   11  Occ=2.000000D+00  E=-5.410420D-01  Symmetry=a1
              MO Center=  6.8D-18, -6.5D-18,  3.5D-02, r^2= 1.9D+00
   Bfn.  Coefficient  Atom+Function         Bfn.  Coefficient  Atom+Function  
  ----- ------------  ---------------      ----- ------------  ---------------
    39      0.475497  5 Cl pz                 6     -0.349405  1 C  pz         
    42      0.299638  5 Cl pz                33      0.207109  5 Cl s          
     9     -0.167597  1 C  pz         

 Vector   12  Occ=2.000000D+00  E=-4.321164D-01  Symmetry=e
              MO Center= -2.0D-02,  2.8D-02,  4.1D-01, r^2= 1.6D+00
   Bfn.  Coefficient  Atom+Function         Bfn.  Coefficient  Atom+Function  
  ----- ------------  ---------------      ----- ------------  ---------------
    38      0.577373  5 Cl py                41      0.494224  5 Cl py         
    25     -0.158236  4 H  s                  5     -0.150893  1 C  py         

 Vector   13  Occ=2.000000D+00  E=-4.321164D-01  Symmetry=e
              MO Center=  2.0D-02, -2.8D-02,  4.1D-01, r^2= 1.6D+00
   Bfn.  Coefficient  Atom+Function         Bfn.  Coefficient  Atom+Function  
  ----- ------------  ---------------      ----- ------------  ---------------
    37      0.577373  5 Cl px                40      0.494224  5 Cl px         
     4     -0.150893  1 C  px                20     -0.150709  3 H  s          

 Vector   14  Occ=0.000000D+00  E= 1.690635D-01  Symmetry=a1
              MO Center=  3.5D-16,  5.3D-16, -1.3D+00, r^2= 4.5D+00
   Bfn.  Coefficient  Atom+Function         Bfn.  Coefficient  Atom+Function  
  ----- ------------  ---------------      ----- ------------  ---------------
     3      2.193269  1 C  s                 16     -0.871498  2 H  s          
    21     -0.871498  3 H  s                 26     -0.871498  4 H  s          
    42      0.495877  5 Cl pz                33     -0.365047  5 Cl s          
    39      0.176993  5 Cl pz         

 Vector   15  Occ=0.000000D+00  E= 2.255899D-01  Symmetry=a1
              MO Center=  5.6D-17,  1.0D-16, -5.4D-01, r^2= 3.5D+00
   Bfn.  Coefficient  Atom+Function         Bfn.  Coefficient  Atom+Function  
  ----- ------------  ---------------      ----- ------------  ---------------
     9      1.266596  1 C  pz                42      0.919946  5 Cl pz         
    33     -0.891562  5 Cl s                 16      0.602978  2 H  s          
    21      0.602978  3 H  s                 26      0.602978  4 H  s          
     3     -0.453626  1 C  s                  6      0.378737  1 C  pz         
    39      0.239790  5 Cl pz         

 Vector   16  Occ=0.000000D+00  E= 2.435031D-01  Symmetry=e
              MO Center=  2.2D-01, -6.8D-01, -1.6D+00, r^2= 4.0D+00
   Bfn.  Coefficient  Atom+Function         Bfn.  Coefficient  Atom+Function  
  ----- ------------  ---------------      ----- ------------  ---------------
    21     -1.868773  3 H  s                 16      1.808121  2 H  s          
     7      1.384321  1 C  px                 8      0.328859  1 C  py         
     4      0.296082  1 C  px         

 Vector   17  Occ=0.000000D+00  E= 2.435031D-01  Symmetry=e
              MO Center= -2.2D-01,  6.8D-01, -1.6D+00, r^2= 4.0D+00
   Bfn.  Coefficient  Atom+Function         Bfn.  Coefficient  Atom+Function  
  ----- ------------  ---------------      ----- ------------  ---------------
    26      2.122856  4 H  s                  8     -1.384321  1 C  py         
    16     -1.113954  2 H  s                 21     -1.008902  3 H  s          
     7      0.328859  1 C  px                 5     -0.296082  1 C  py         

 Vector   18  Occ=0.000000D+00  E= 5.840660D-01  Symmetry=e
              MO Center=  1.2D-01, -1.0D-02, -9.5D-01, r^2= 2.6D+00
   Bfn.  Coefficient  Atom+Function         Bfn.  Coefficient  Atom+Function  
  ----- ------------  ---------------      ----- ------------  ---------------
     8      1.090161  1 C  py                15      0.682321  2 H  s          
    25     -0.616027  4 H  s                  7      0.397951  1 C  px         
     5     -0.248645  1 C  py                44     -0.197497  5 Cl d -1       
    41     -0.181169  5 Cl py                38     -0.155797  5 Cl py         

 Vector   19  Occ=0.000000D+00  E= 5.840660D-01  Symmetry=e
              MO Center= -1.2D-01,  1.0D-02, -9.5D-01, r^2= 2.6D+00
   Bfn.  Coefficient  Atom+Function         Bfn.  Coefficient  Atom+Function  
  ----- ------------  ---------------      ----- ------------  ---------------
     7      1.090161  1 C  px                20     -0.749601  3 H  s          
    25      0.432213  4 H  s                  8     -0.397951  1 C  py         
    15      0.317388  2 H  s                  4     -0.248645  1 C  px         
    46      0.197497  5 Cl d  1              40     -0.181169  5 Cl px         
    37     -0.155797  5 Cl px         

 Vector   20  Occ=0.000000D+00  E= 5.912811D-01  Symmetry=a1
              MO Center= -2.7D-15, -1.4D-15, -1.2D+00, r^2= 2.6D+00
   Bfn.  Coefficient  Atom+Function         Bfn.  Coefficient  Atom+Function  
  ----- ------------  ---------------      ----- ------------  ---------------
     9      1.295615  1 C  pz                 6     -0.700001  1 C  pz         
    33     -0.470758  5 Cl s                 45     -0.359645  5 Cl d  0       
    15      0.260110  2 H  s                 20      0.260110  3 H  s          
    25      0.260110  4 H  s                  2     -0.218747  1 C  s          

 Vector   21  Occ=0.000000D+00  E= 7.256932D-01  Symmetry=a1
              MO Center=  1.4D-15,  1.1D-15,  1.0D+00, r^2= 2.5D+00
   Bfn.  Coefficient  Atom+Function         Bfn.  Coefficient  Atom+Function  
  ----- ------------  ---------------      ----- ------------  ---------------
    42      1.540370  5 Cl pz                39     -0.957813  5 Cl pz         
     3      0.824574  1 C  s                  9      0.782942  1 C  pz         
    32     -0.389401  5 Cl s                  6     -0.337781  1 C  pz         
    33     -0.306780  5 Cl s                 12      0.190403  1 C  d  0       
    31     -0.190951  5 Cl s                  2     -0.174426  1 C  s          

 Vector   22  Occ=0.000000D+00  E= 7.834692D-01  Symmetry=e
              MO Center= -6.4D-03,  1.3D-02,  6.5D-01, r^2= 2.3D+00
   Bfn.  Coefficient  Atom+Function         Bfn.  Coefficient  Atom+Function  
  ----- ------------  ---------------      ----- ------------  ---------------
    41      1.251471  5 Cl py                38     -1.074827  5 Cl py         
     8     -0.520267  1 C  py                40     -0.199369  5 Cl px         
    35     -0.185189  5 Cl py                44      0.185556  5 Cl d -1       
     5      0.183648  1 C  py                37      0.171229  5 Cl px         
    26      0.163639  4 H  s          

 Vector   23  Occ=0.000000D+00  E= 7.834692D-01  Symmetry=e
              MO Center=  6.4D-03, -1.3D-02,  6.5D-01, r^2= 2.3D+00
   Bfn.  Coefficient  Atom+Function         Bfn.  Coefficient  Atom+Function  
  ----- ------------  ---------------      ----- ------------  ---------------
    40      1.251471  5 Cl px                37     -1.074827  5 Cl px         
     7     -0.520267  1 C  px                41      0.199369  5 Cl py         
    34     -0.185189  5 Cl px                46     -0.185556  5 Cl d  1       
     4      0.183648  1 C  px                38     -0.171229  5 Cl py         
    21      0.150241  3 H  s          


 center of mass
 --------------
 x =   0.00000000 y =   0.00000000 z =   0.17240593

 moments of inertia (a.u.)
 ------------------
         135.950935747038           0.000000000000           0.000000000000
           0.000000000000         135.950935747038           0.000000000000
           0.000000000000           0.000000000000          11.452455007518

  Mulliken analysis of the total density
  --------------------------------------

    Atom       Charge   Shell Charges
 -----------   ------   -------------------------------------------------------
    1 C    6     6.05   2.00  0.66  0.47  1.97  0.89  0.07
    2 H    1     0.92   0.75  0.13  0.03
    3 H    1     0.92   0.75  0.13  0.03
    4 H    1     0.92   0.75  0.13  0.03
    5 Cl  17    17.20   2.00  2.01  0.92  1.00  6.00  3.03  2.19  0.04

       Multipole analysis of the density wrt the origin
       ------------------------------------------------

     L   x y z        total         open         nuclear
     -   - - -        -----         ----         -------
     0   0 0 0     -0.000000      0.000000     26.000000

     1   1 0 0      0.000000      0.000000      0.000000
     1   0 1 0     -0.000000      0.000000      0.000000
     1   0 0 1     -0.862946      0.000000     -0.445086

     2   2 0 0    -14.742230      0.000000      5.681768
     2   1 1 0     -0.000000      0.000000      0.000000
     2   1 0 1      0.000000      0.000000     -0.000000
     2   0 2 0    -14.742230      0.000000      5.681768
     2   0 1 1      0.000000      0.000000     -0.000000
     2   0 0 2    -13.436723      0.000000     76.758195


 Parallel integral file used       5 records with       0 large values

 Line search: 
     step= 1.00 grad=-5.9D-05 hess= 1.8D-05 energy=   -499.117844 mode=downhill
 new step= 1.64                   predicted energy=   -499.117851

          --------
          Step   2
          --------


                         Geometry "geometry" -> "geometry"
                         ---------------------------------

 Output coordinates in a.u. (scale by  1.000000000 to convert to a.u.)

  No.       Tag          Charge          X              Y              Z
 ---- ---------------- ---------- -------------- -------------- --------------
    1 c                    6.0000     0.00000000     0.00000000    -2.15608517
    2 h                    1.0000    -1.37810877    -1.37810877    -2.79386978
    3 h                    1.0000     1.88253159    -0.50442282    -2.79386978
    4 h                    1.0000    -0.50442282     1.88253159    -2.79386978
    5 cl                  17.0000     0.00000000     0.00000000     1.22650164

      Atomic Mass 
      ----------- 

      c                 12.000000
      h                  1.007825
      cl                34.968850


 Effective nuclear repulsion energy (a.u.)      51.2357517847

            Nuclear Dipole moment (a.u.) 
            ----------------------------
        X                 Y               Z
 ---------------- ---------------- ----------------
     0.0000000000     0.0000000000    -0.4675925326

      Symmetry information
      --------------------

 Group name             C3v       
 Group number             17
 Group order               6
 No. of unique centers     3

      Symmetry unique atoms

     1    2    5

                                 NWChem SCF Module
                                 -----------------


                      CH3Cl cc-pvdz SCF geometry optimization



  ao basis        = "ao basis"
  functions       =    47
  atoms           =     5
  closed shells   =    13
  open shells     =     0
  charge          =   0.00
  wavefunction    = RHF 
  input vectors   = ./CH3Cl-cc-pvdz.movecs
  output vectors  = ./CH3Cl-cc-pvdz.movecs
  use symmetry    = T
  symmetry adapt  = T


 Summary of "ao basis" -> "ao basis" (spherical)
 ------------------------------------------------------------------------------
       Tag                 Description            Shells   Functions and Types
 ---------------- ------------------------------  ------  ---------------------
 c                          cc-pvdz                  6       14   3s2p1d
 h                          cc-pvdz                  3        5   2s1p
 cl                         cc-pvdz                  8       18   4s3p1d


      Symmetry analysis of basis
      --------------------------

        a1         18
        a2          1
        e          28


 Forming initial guess at      15.8s


 Loading old vectors from job with title :

CH3Cl cc-pvdz SCF geometry optimization


      Symmetry analysis of molecular orbitals - initial
      -------------------------------------------------

  Numbering of irreducible representations: 

     1 a1          2 a2          3 e       

  Orbital symmetries:

     1 a1          2 a1          3 a1          4 a1          5 e       
     6 e           7 a1          8 a1          9 e          10 e       
    11 a1         12 e          13 e          14 a1         15 a1      
    16 e          17 e          18 e          19 e          20 a1      
    21 a1         22 e          23 e       


 Starting SCF solution at      15.8s



 ----------------------------------------------
         Quadratically convergent ROHF

 Convergence threshold     :          1.000E-04
 Maximum no. of iterations :           30
 Final Fock-matrix accuracy:          1.000E-07
 ----------------------------------------------


 Integral file          = ./CH3Cl-cc-pvdz.aoints.0
 Record size in doubles =  65536        No. of integs per rec  =  43688
 Max. records in memory =      6        Max. records in file   = 415529
 No. of bits per label  =      8        No. of bits per value  =     64


 #quartets = 1.533D+04 #integrals = 1.975D+05 #direct =  0.0% #cached =100.0%


              iter       energy          gnorm     gmax       time
             ----- ------------------- --------- --------- --------
                 1     -499.1178469088  6.47D-03  3.18D-03     16.6
                 2     -499.1178513283  3.07D-05  1.60D-05     16.6


       Final RHF  results 
       ------------------ 

         Total SCF energy =   -499.117851328328
      One-electron energy =   -789.987702029276
      Two-electron energy =    239.634098916229
 Nuclear repulsion energy =     51.235751784718

        Time for solution =      0.9s



       Symmetry analysis of molecular orbitals - final
       -----------------------------------------------

  Numbering of irreducible representations: 

     1 a1          2 a2          3 e       

  Orbital symmetries:

     1 a1          2 a1          3 a1          4 a1          5 e       
     6 e           7 a1          8 a1          9 e          10 e       
    11 a1         12 e          13 e          14 a1         15 a1      
    16 e          17 e          18 e          19 e          20 a1      
    21 a1         22 e          23 e       

             Final eigenvalues
             -----------------

              1      
    1 -104.8161
    2  -11.2974
    3  -10.5428
    4   -8.0104
    5   -8.0070
    6   -8.0070
    7   -1.1248
    8   -0.9150
    9   -0.6177
   10   -0.6177
   11   -0.5399
   12   -0.4320
   13   -0.4320
   14    0.1688
   15    0.2246
   16    0.2434
   17    0.2434
   18    0.5841
   19    0.5841
   20    0.5918
   21    0.7255
   22    0.7837
   23    0.7837

                       ROHF Final Molecular Orbital Analysis
                       -------------------------------------

 Vector    4  Occ=2.000000D+00  E=-8.010387D+00  Symmetry=a1
              MO Center= -3.6D-25, -8.8D-25,  6.5D-01, r^2= 5.7D-02
   Bfn.  Coefficient  Atom+Function         Bfn.  Coefficient  Atom+Function  
  ----- ------------  ---------------      ----- ------------  ---------------
    36      0.999924  5 Cl pz         

 Vector    5  Occ=2.000000D+00  E=-8.006981D+00  Symmetry=e
              MO Center=  1.4D-08, -2.1D-08,  6.5D-01, r^2= 5.7D-02
   Bfn.  Coefficient  Atom+Function         Bfn.  Coefficient  Atom+Function  
  ----- ------------  ---------------      ----- ------------  ---------------
    34      0.995657  5 Cl px         

 Vector    6  Occ=2.000000D+00  E=-8.006981D+00  Symmetry=e
              MO Center= -1.4D-08,  2.1D-08,  6.5D-01, r^2= 5.7D-02
   Bfn.  Coefficient  Atom+Function         Bfn.  Coefficient  Atom+Function  
  ----- ------------  ---------------      ----- ------------  ---------------
    35      0.995657  5 Cl py         

 Vector    7  Occ=2.000000D+00  E=-1.124806D+00  Symmetry=a1
              MO Center= -1.6D-18, -1.4D-18,  4.5D-02, r^2= 1.2D+00
   Bfn.  Coefficient  Atom+Function         Bfn.  Coefficient  Atom+Function  
  ----- ------------  ---------------      ----- ------------  ---------------
    33      0.433660  5 Cl s                 32      0.423573  5 Cl s          
     2      0.212948  1 C  s          

 Vector    8  Occ=2.000000D+00  E=-9.149879D-01  Symmetry=a1
              MO Center= -1.9D-17,  3.6D-18, -7.3D-01, r^2= 2.0D+00
   Bfn.  Coefficient  Atom+Function         Bfn.  Coefficient  Atom+Function  
  ----- ------------  ---------------      ----- ------------  ---------------
    33     -0.332294  5 Cl s                  2      0.319428  1 C  s          
    32     -0.289565  5 Cl s                  3      0.236464  1 C  s          
    15      0.182792  2 H  s                 20      0.182792  3 H  s          
    25      0.182792  4 H  s          

 Vector    9  Occ=2.000000D+00  E=-6.177069D-01  Symmetry=e
              MO Center=  1.7D-02,  2.1D-01, -1.1D+00, r^2= 1.5D+00
   Bfn.  Coefficient  Atom+Function         Bfn.  Coefficient  Atom+Function  
  ----- ------------  ---------------      ----- ------------  ---------------
     5      0.381758  1 C  py                25      0.331780  4 H  s          
    20     -0.215909  3 H  s                  4     -0.177005  1 C  px         
     8      0.173628  1 C  py                38      0.164712  5 Cl py         

 Vector   10  Occ=2.000000D+00  E=-6.177069D-01  Symmetry=e
[...]
    41     -0.189724  5 Cl py                38     -0.165704  5 Cl py         

 Vector   19  Occ=0.000000D+00  E= 5.839079D-01  Symmetry=e
              MO Center= -6.8D-02,  9.8D-02, -9.5D-01, r^2= 2.6D+00
   Bfn.  Coefficient  Atom+Function         Bfn.  Coefficient  Atom+Function  
  ----- ------------  ---------------      ----- ------------  ---------------
     7      1.158468  1 C  px                20     -0.706582  3 H  s          
    15      0.577346  2 H  s                  4     -0.264228  1 C  px         
    46      0.208763  5 Cl d  1              40     -0.189724  5 Cl px         
    37     -0.165704  5 Cl px         

 Vector   20  Occ=0.000000D+00  E= 5.922053D-01  Symmetry=a1
              MO Center= -3.5D-15, -2.6D-15, -1.2D+00, r^2= 2.6D+00
   Bfn.  Coefficient  Atom+Function         Bfn.  Coefficient  Atom+Function  
  ----- ------------  ---------------      ----- ------------  ---------------
     9      1.292003  1 C  pz                 6     -0.701229  1 C  pz         
    33     -0.468611  5 Cl s                 45     -0.358538  5 Cl d  0       
    15      0.262859  2 H  s                 20      0.262859  3 H  s          
    25      0.262859  4 H  s                  2     -0.216054  1 C  s          

 Vector   21  Occ=0.000000D+00  E= 7.255262D-01  Symmetry=a1
              MO Center=  1.4D-15,  1.1D-15,  1.0D+00, r^2= 2.5D+00
   Bfn.  Coefficient  Atom+Function         Bfn.  Coefficient  Atom+Function  
  ----- ------------  ---------------      ----- ------------  ---------------
    42      1.538944  5 Cl pz                39     -0.956365  5 Cl pz         
     3      0.817540  1 C  s                  9      0.784642  1 C  pz         
    32     -0.391114  5 Cl s                  6     -0.338894  1 C  pz         
    33     -0.302366  5 Cl s                 31     -0.191890  5 Cl s          
    12      0.190338  1 C  d  0               2     -0.173330  1 C  s          

 Vector   22  Occ=0.000000D+00  E= 7.837371D-01  Symmetry=e
              MO Center= -7.3D-03,  1.3D-02,  6.4D-01, r^2= 2.4D+00
   Bfn.  Coefficient  Atom+Function         Bfn.  Coefficient  Atom+Function  
  ----- ------------  ---------------      ----- ------------  ---------------
    41      1.254872  5 Cl py                38     -1.077524  5 Cl py         
     8     -0.536834  1 C  py                 5      0.190216  1 C  py         
    35     -0.185619  5 Cl py                44      0.184316  5 Cl d -1       
    26      0.176553  4 H  s                 40     -0.170144  5 Cl px         

 Vector   23  Occ=0.000000D+00  E= 7.837371D-01  Symmetry=e
              MO Center=  7.3D-03, -1.3D-02,  6.4D-01, r^2= 2.4D+00
   Bfn.  Coefficient  Atom+Function         Bfn.  Coefficient  Atom+Function  
  ----- ------------  ---------------      ----- ------------  ---------------
    40      1.254872  5 Cl px                37     -1.077524  5 Cl px         
     7     -0.536834  1 C  px                 4      0.190216  1 C  px         
    34     -0.185619  5 Cl px                46     -0.184316  5 Cl d  1       
    41      0.170144  5 Cl py                21      0.164175  3 H  s          


 center of mass
 --------------
 x =   0.00000000 y =   0.00000000 z =   0.17383526

 moments of inertia (a.u.)
 ------------------
         136.510076925149          -0.000000000000           0.000000000000
          -0.000000000000         136.510076925149           0.000000000000
           0.000000000000           0.000000000000          11.479963713753

  Mulliken analysis of the total density
  --------------------------------------

    Atom       Charge   Shell Charges
 -----------   ------   -------------------------------------------------------
    1 C    6     6.05   2.00  0.66  0.47  1.97  0.89  0.07
    2 H    1     0.92   0.75  0.13  0.03
    3 H    1     0.92   0.75  0.13  0.03
    4 H    1     0.92   0.75  0.13  0.03
    5 Cl  17    17.20   2.00  2.01  0.93  1.00  6.00  3.03  2.19  0.04

       Multipole analysis of the density wrt the origin
       ------------------------------------------------

     L   x y z        total         open         nuclear
     -   - - -        -----         ----         -------
     0   0 0 0     -0.000000      0.000000     26.000000

     1   1 0 0      0.000000      0.000000      0.000000
     1   0 1 0     -0.000000      0.000000      0.000000
     1   0 0 1     -0.869435      0.000000     -0.410529

     2   2 0 0    -14.741698      0.000000      5.695415
     2   1 1 0     -0.000000      0.000000      0.000000
     2   1 0 1     -0.000000      0.000000     -0.000000
     2   0 2 0    -14.741698      0.000000      5.695415
     2   0 1 1      0.000000      0.000000      0.000000
     2   0 0 2    -13.434163      0.000000     77.035309


 Parallel integral file used       5 records with       0 large values

 Line search: 
     step= 1.00 grad=-1.8D-09 hess=-8.7D-08 energy=   -499.117853 mode=accept  
 new step= 1.00                   predicted energy=   -499.117853

          --------
          Step   4
          --------


                         Geometry "geometry" -> "geometry"
                         ---------------------------------

 Output coordinates in a.u. (scale by  1.000000000 to convert to a.u.)

  No.       Tag          Charge          X              Y              Z
 ---- ---------------- ---------- -------------- -------------- --------------
    1 c                    6.0000    -0.00000000    -0.00000000    -2.15562599
    2 h                    1.0000    -1.37785041    -1.37785041    -2.79516382
    3 h                    1.0000     1.88217866    -0.50432825    -2.79516382
    4 h                    1.0000    -0.50432825     1.88217866    -2.79516382
    5 cl                  17.0000    -0.00000000     0.00000000     1.22992459

      Atomic Mass 
      ----------- 

      c                 12.000000
      h                  1.007825
      cl                34.968850


 Effective nuclear repulsion energy (a.u.)      51.1982406643

            Nuclear Dipole moment (a.u.) 
            ----------------------------
        X                 Y               Z
 ---------------- ---------------- ----------------
     0.0000000000     0.0000000000    -0.4105294163

      Symmetry information
      --------------------

 Group name             C3v       
 Group number             17
 Group order               6
 No. of unique centers     3

      Symmetry unique atoms

     1    2    5

                                 NWChem SCF Module
                                 -----------------


                      CH3Cl cc-pvdz SCF geometry optimization



  ao basis        = "ao basis"
  functions       =    47
  atoms           =     5
  closed shells   =    13
  open shells     =     0
  charge          =   0.00
  wavefunction    = RHF 
  input vectors   = ./CH3Cl-cc-pvdz.movecs
  output vectors  = ./CH3Cl-cc-pvdz.movecs
  use symmetry    = T
  symmetry adapt  = T


 Summary of "ao basis" -> "ao basis" (spherical)
 ------------------------------------------------------------------------------
       Tag                 Description            Shells   Functions and Types
 ---------------- ------------------------------  ------  ---------------------
 c                          cc-pvdz                  6       14   3s2p1d
 h                          cc-pvdz                  3        5   2s1p
 cl                         cc-pvdz                  8       18   4s3p1d


      Symmetry analysis of basis
      --------------------------

        a1         18
        a2          1
        e          28


  The SCF is already converged 

         Total SCF energy =   -499.117853213080

                              NWChem Gradients Module
                              -----------------------


                      CH3Cl cc-pvdz SCF geometry optimization


  wavefunction    =   RHF     

  Using symmetry


                         RHF ENERGY GRADIENTS

    atom               coordinates                        gradient
                 x          y          z           x          y          z
   1 c      -0.000000  -0.000000  -2.155626   -0.000000   0.000000  -0.000006
   2 h      -1.377850  -1.377850  -2.795164   -0.000002  -0.000002  -0.000000
   3 h       1.882179  -0.504328  -2.795164    0.000003  -0.000001  -0.000000
   4 h      -0.504328   1.882179  -2.795164   -0.000001   0.000003  -0.000000
   5 cl     -0.000000   0.000000   1.229925   -0.000000  -0.000000   0.000007

                 ----------------------------------------
                 |  Time  |  1-e(secs)   |  2-e(secs)   |
                 ----------------------------------------
                 |  CPU   |       0.00   |       5.94   |
                 ----------------------------------------
                 |  WALL  |       0.00   |       5.95   |
                 ----------------------------------------

  Step       Energy      Delta E   Gmax     Grms     Xrms     Xmax   Walltime
  ---- ---------------- -------- -------- -------- -------- -------- --------
@    4    -499.11785321 -8.9D-08  0.00001  0.00000  0.00002  0.00004     36.5
                                     ok       ok       ok       ok  



                                Z-matrix (autoz)
                                -------- 

 Units are Angstrom for bonds and degrees for angles

      Type          Name      I     J     K     L     M      Value     Gradient
      ----------- --------  ----- ----- ----- ----- ----- ---------- ----------
    1 Stretch                  1     2                       1.08526    0.00000
    2 Stretch                  1     3                       1.08526    0.00000
    3 Stretch                  1     4                       1.08526    0.00000
    4 Stretch                  1     5                       1.79156    0.00001
    5 Bend                     2     1     3               110.74027    0.00000
    6 Bend                     2     1     4               110.74027    0.00000
    7 Bend                     2     1     5               108.17025   -0.00000
    8 Bend                     3     1     4               110.74027    0.00000
    9 Bend                     3     1     5               108.17025   -0.00000
   10 Bend                     4     1     5               108.17025   -0.00000


      ----------------------
      Optimization converged
      ----------------------


  Step       Energy      Delta E   Gmax     Grms     Xrms     Xmax   Walltime
  ---- ---------------- -------- -------- -------- -------- -------- --------
@    4    -499.11785321 -8.9D-08  0.00001  0.00000  0.00002  0.00004     36.5
                                     ok       ok       ok       ok  



                                Z-matrix (autoz)
                                -------- 

 Units are Angstrom for bonds and degrees for angles

      Type          Name      I     J     K     L     M      Value     Gradient
      ----------- --------  ----- ----- ----- ----- ----- ---------- ----------
    1 Stretch                  1     2                       1.08526    0.00000
    2 Stretch                  1     3                       1.08526    0.00000
    3 Stretch                  1     4                       1.08526    0.00000
    4 Stretch                  1     5                       1.79156    0.00001
    5 Bend                     2     1     3               110.74027    0.00000
    6 Bend                     2     1     4               110.74027    0.00000
    7 Bend                     2     1     5               108.17025   -0.00000
    8 Bend                     3     1     4               110.74027    0.00000
    9 Bend                     3     1     5               108.17025   -0.00000
   10 Bend                     4     1     5               108.17025   -0.00000



                         Geometry "geometry" -> "geometry"
                         ---------------------------------

 Output coordinates in a.u. (scale by  1.000000000 to convert to a.u.)

  No.       Tag          Charge          X              Y              Z
 ---- ---------------- ---------- -------------- -------------- --------------
    1 c                    6.0000    -0.00000000    -0.00000000    -2.15562599
    2 h                    1.0000    -1.37785041    -1.37785041    -2.79516382
    3 h                    1.0000     1.88217866    -0.50432825    -2.79516382
    4 h                    1.0000    -0.50432825     1.88217866    -2.79516382
    5 cl                  17.0000    -0.00000000     0.00000000     1.22992459

      Atomic Mass 
      ----------- 

      c                 12.000000
      h                  1.007825
      cl                34.968850


 Effective nuclear repulsion energy (a.u.)      51.1982406643

            Nuclear Dipole moment (a.u.) 
            ----------------------------
        X                 Y               Z
 ---------------- ---------------- ----------------
     0.0000000000     0.0000000000    -0.4105294163

      Symmetry information
      --------------------

 Group name             C3v       
 Group number             17
 Group order               6
 No. of unique centers     3

      Symmetry unique atoms

     1    2    5


                Final and change from initial internal coordinates
                --------------------------------------------------



                                Z-matrix (autoz)
                                -------- 

 Units are Angstrom for bonds and degrees for angles

      Type          Name      I     J     K     L     M      Value       Change
      ----------- --------  ----- ----- ----- ----- ----- ---------- ----------
    1 Stretch                  1     2                       1.08526   -0.01474
    2 Stretch                  1     3                       1.08526   -0.01474
    3 Stretch                  1     4                       1.08526   -0.01474
    4 Stretch                  1     5                       1.79156    0.01156
    5 Bend                     2     1     3               110.74027    1.25945
    6 Bend                     2     1     4               110.74027    1.25945
    7 Bend                     2     1     5               108.17025   -1.29137
    8 Bend                     3     1     4               110.74027    1.25945
    9 Bend                     3     1     5               108.17025   -1.29137
   10 Bend                     4     1     5               108.17025   -1.29137

 ==============================================================================
                                internuclear distances
 ------------------------------------------------------------------------------
       center one      |      center two      | atomic units |       a.u.
 ------------------------------------------------------------------------------
    2 h                |   1 c                |     2.05084  |     2.05084
    3 h                |   1 c                |     2.05084  |     2.05084
    4 h                |   1 c                |     2.05084  |     2.05084
    5 cl               |   1 c                |     3.38555  |     3.38555
 ------------------------------------------------------------------------------
                         number of included internuclear distances:          4
 ==============================================================================



 ==============================================================================
                                 internuclear angles
 ------------------------------------------------------------------------------
        center 1       |       center 2       |       center 3       |  degrees
 ------------------------------------------------------------------------------
    2 h                |   1 c                |   3 h                |   110.74
    2 h                |   1 c                |   4 h                |   110.74
    2 h                |   1 c                |   5 cl               |   108.17
    3 h                |   1 c                |   4 h                |   110.74
    3 h                |   1 c                |   5 cl               |   108.17
    4 h                |   1 c                |   5 cl               |   108.17
 ------------------------------------------------------------------------------
                            number of included internuclear angles:          6
 ==============================================================================




 Task  times  cpu:       36.4s     wall:       36.5s
 Summary of allocated global arrays
-----------------------------------
  No active global arrays



                         GA Statistics for process    0
                         ------------------------------

       create   destroy   get      put      acc     scatter   gather  read&inc
calls: 1146     1146     1.94e+05 1.37e+04 1.42e+04    0        0     2337     
number of processes/call 1.00e+00 1.00e+00 1.00e+00 0.00e+00 0.00e+00
bytes total:             3.37e+07 1.48e+07 1.08e+07 0.00e+00 0.00e+00 1.87e+04
bytes remote:            0.00e+00 0.00e+00 0.00e+00 0.00e+00 0.00e+00 0.00e+00
Max memory consumed for GA by this process: 243912 bytes
MA_summarize_allocated_blocks: starting scan ...
MA_summarize_allocated_blocks: scan completed: 0 heap blocks, 0 stack blocks
MA usage statistics:

	allocation statistics:
					      heap	     stack
					      ----	     -----
	current number of blocks	         0	         0
	maximum number of blocks	        20	        29
	current total bytes		         0	         0
	maximum total bytes		   3175048	  22510248
	maximum total K-bytes		      3176	     22511
	maximum total M-bytes		         4	        23


                                NWChem Input Module
                                -------------------





                                     CITATION
                                     --------
                Please cite the following reference when publishing
                           results obtained with NWChem:

                 M. Valiev, E.J. Bylaska, N. Govind, K. Kowalski,
              T.P. Straatsma, H.J.J. van Dam, D. Wang, J. Nieplocha,
                        E. Apra, T.L. Windus, W.A. de Jong
                 "NWChem: a comprehensive and scalable open-source
                  solution for large scale molecular simulations"
                      Comput. Phys. Commun. 181, 1477 (2010)
                           doi:10.1016/j.cpc.2010.04.018

                                      AUTHORS
                                      -------
          E. Apra, E. J. Bylaska, W. A. de Jong, N. Govind, K. Kowalski,
       T. P. Straatsma, M. Valiev, H. J. J. van Dam, D. Wang, T. L. Windus,
        J. Hammond, J. Autschbach, K. Bhaskaran-Nair, J. Brabec, K. Lopata,
       S. A. Fischer, S. Krishnamoorthy, W. Ma, M. Klemm, O. Villa, Y. Chen,
    V. Anisimov, F. Aquino, S. Hirata, M. T. Hackler, T. Risthaus, M. Malagoli,
       A. Marenich, A. Otero-de-la-Roza, J. Mullin, P. Nichols, R. Peverati,
     J. Pittner, Y. Zhao, P.-D. Fan, A. Fonari, M. Williamson, R. J. Harrison,
       J. R. Rehr, M. Dupuis, D. Silverstein, D. M. A. Smith, J. Nieplocha,
        V. Tipparaju, M. Krishnan, B. E. Van Kuiken, A. Vazquez-Mayagoitia,
        L. Jensen, M. Swart, Q. Wu, T. Van Voorhis, A. A. Auer, M. Nooijen,
      L. D. Crosby, E. Brown, G. Cisneros, G. I. Fann, H. Fruchtl, J. Garza,
        K. Hirao, R. A. Kendall, J. A. Nichols, K. Tsemekhman, K. Wolinski,
     J. Anchell, D. E. Bernholdt, P. Borowski, T. Clark, D. Clerc, H. Dachsel,
   M. J. O. Deegan, K. Dyall, D. Elwood, E. Glendening, M. Gutowski, A. C. Hess,
         J. Jaffe, B. G. Johnson, J. Ju, R. Kobayashi, R. Kutteh, Z. Lin,
   R. Littlefield, X. Long, B. Meng, T. Nakajima, S. Niu, L. Pollack, M. Rosing,
   K. Glaesemann, G. Sandrone, M. Stave, H. Taylor, G. Thomas, J. H. van Lenthe,
                               A. T. Wong, Z. Zhang.

 Total times  cpu:       36.4s     wall:       36.6s
