
 Primary working directories    : /tmp
 Secondary working directories  : /tmp
 Wavefunction directory         : /home/rafa/wfu/
 Main file repository           : /tmp/

 SHA1      : d7a319da42b4bdfa4240c540ceeefc2eb7f66c1a
 NAME      : 2099.9.d7a319d
 ARCHNAME  : linux/x86_64
 FC        : /usr/bin/gfortran
 BLASLIB   : -L/usr/local/intel/composerxe-2011.4.191/composer_xe_2011_sp1.11.339/mkl/lib/intel64 -lmkl_gf_ilp64 -lmkl_sequential -lmkl_core
 id        : lopez

 Nodes                nprocs
 localhost.localdomain    1

 Using customized tuning parameters: mindgm=1; mindgv=20; mindgc=4; mindgr=1; noblas=0; minvec=7
 default implementation of scratch files=df  

   ***,sf6
   memory,100,M
   gprint,basis
 
   basis=cc-pvdz
 
   geomtyp=xyz
   geom={7
         SF6
   S ,   0.          0.          0.
   F ,   1.5607      0.          0.
   F ,  -1.5607      0.          0.
   F ,   0.          1.5607      0.
   F ,   0.         -1.5607      0.
   F ,   0.          0.          1.5607
   F ,   0.          0.         -1.5607
   }
   hf
   {matrop
    load,orb
    print,orb
   }
   {matrop
   load,d,den
                                                                                 !write,d,sf6.den
   print,d
   }

 Variables initialized (835), CPU time= 0.01 sec
 Commands  initialized (628), CPU time= 0.01 sec, 531 directives.
 Default parameters read. Elapsed time= 0.04 sec

 Checking input...
 Passed
1


                                         ***  PROGRAM SYSTEM MOLPRO  ***
                         Copyright, University College Cardiff Consultants Limited, 2008

                                    Version 2099.9 linked may  7 2014 10:06:47


 **********************************************************************************************************************************
 LABEL *                                                                                 
  64 bit serial version                                                                  DATE: 07-May-14          TIME: 10:07:55  
 **********************************************************************************************************************************

 SHA1:             d7a319da42b4bdfa4240c540ceeefc2eb7f66c1a
 **********************************************************************************************************************************


 Variable memory set to  100000000 words,  buffer space   230000 words

 SETTING BASIS          =    CC-PVDZ
 SETTING GEOMTYP        =    XYZ


 Recomputing integrals since basis changed


 Using spherical harmonics

 Library entry S      S cc-pVDZ              selected for orbital group  1
 Library entry S      P cc-pVDZ              selected for orbital group  1
 Library entry S      D cc-pVDZ              selected for orbital group  1
 Library entry F      S cc-pVDZ              selected for orbital group  2
 Library entry F      P cc-pVDZ              selected for orbital group  2
 Library entry F      D cc-pVDZ              selected for orbital group  2

1PROGRAM * SEWARD (Integral evaluation for generally contracted gaussian basis sets)     Author: Roland Lindh, 1990

 Geometry written to block  1 of record 700


 Point group  D2h 



 ATOMIC COORDINATES

 NR  ATOM    CHARGE       X              Y              Z

   1  S      16.00    0.000000000    0.000000000    0.000000000
   2  F       9.00    2.949295573    0.000000000    0.000000000
   3  F       9.00   -2.949295573    0.000000000    0.000000000
   4  F       9.00    0.000000000    2.949295573    0.000000000
   5  F       9.00    0.000000000   -2.949295573    0.000000000
   6  F       9.00    0.000000000    0.000000000    2.949295573
   7  F       9.00    0.000000000    0.000000000   -2.949295573

 Bond lengths in Bohr (Angstrom)

 1-2  2.949295573  1-3  2.949295573  1-4  2.949295573  1-5  2.949295573  1-6  2.949295573
     ( 1.560700000)     ( 1.560700000)     ( 1.560700000)     ( 1.560700000)     ( 1.560700000)

 1-7  2.949295573
     ( 1.560700000)

 Bond angles

  2-1-3  180.00000000   2-1-4   90.00000000   2-1-5   90.00000000   2-1-6   90.00000000

  2-1-7   90.00000000   3-1-4   90.00000000   3-1-5   90.00000000   3-1-6   90.00000000

  3-1-7   90.00000000   4-1-5  180.00000000   4-1-6   90.00000000   4-1-7   90.00000000

  5-1-6   90.00000000   5-1-7   90.00000000   6-1-7  180.00000000


 BASIS DATA

   Nr Sym  Nuc  Type         Exponents   Contraction coefficients

    1.1 Ag    1  1s      110800.000000   0.24763500E-03 -0.68703900E-04  0.19907700E-04  0.00000000E+00
    2.1 Ag                16610.000000   0.19202600E-02 -0.52768100E-03  0.15348300E-03  0.00000000E+00
    3.1 Ag                 3781.000000   0.99619200E-02 -0.27967100E-02  0.80950300E-03  0.00000000E+00
    4.1 Ag                 1071.000000   0.40297500E-01 -0.11265100E-01  0.32897400E-02  0.00000000E+00
                            349.800000   0.12860400E+00 -0.38883400E-01  0.11296700E-01  0.00000000E+00
                            126.300000   0.30348000E+00 -0.99502500E-01  0.29638500E-01  0.00000000E+00
                             49.260000   0.42143200E+00 -0.19974000E+00  0.59985100E-01  0.00000000E+00
                             20.160000   0.23078100E+00 -0.12336000E+00  0.41324800E-01  0.00000000E+00
                              5.720000   0.17897100E-01  0.51319400E+00 -0.20747400E+00  0.00000000E+00
                              2.182000  -0.29751600E-02  0.60712000E+00 -0.39288900E+00  0.00000000E+00
                              0.432700   0.84952200E-03  0.39675300E-01  0.63284000E+00  0.00000000E+00
                              0.157000  -0.36793600E-03 -0.94686400E-02  0.55692400E+00  0.10000000E+01
    5.1 Ag    1  3d0          0.479000   0.10000000E+01
    6.1 Ag    1  3d2+         0.479000   0.10000000E+01
    7.1 Ag    2  1s       14710.000000   0.72100000E-03 -0.16500000E-03  0.00000000E+00
    8.1 Ag    3  1s        2207.000000   0.55530000E-02 -0.13080000E-02  0.00000000E+00
    9.1 Ag                  502.800000   0.28267000E-01 -0.64950000E-02  0.00000000E+00
                            142.600000   0.10644400E+00 -0.26691000E-01  0.00000000E+00
                             46.470000   0.28681400E+00 -0.73690000E-01  0.00000000E+00
                             16.700000   0.44864100E+00 -0.17077600E+00  0.00000000E+00
                              6.356000   0.26476100E+00 -0.11232700E+00  0.00000000E+00
                              1.316000   0.15333000E-01  0.56281400E+00  0.00000000E+00
                              0.389700  -0.23320000E-02  0.56877800E+00  0.10000000E+01
   10.1 Ag    2  2px         22.670000   0.44878000E-01  0.00000000E+00
   11.1 Ag    3 -2px          4.977000   0.23571800E+00  0.00000000E+00
                              1.347000   0.50852100E+00  0.00000000E+00
                              0.347100   0.45812000E+00  0.10000000E+01
   12.1 Ag    2  3d0          1.640000   0.10000000E+01
              3  3d0   
   13.1 Ag    2  3d2+         1.640000   0.10000000E+01
              3  3d2+  
   14.1 Ag    4  1s       14710.000000   0.72100000E-03 -0.16500000E-03  0.00000000E+00
   15.1 Ag    5  1s        2207.000000   0.55530000E-02 -0.13080000E-02  0.00000000E+00
   16.1 Ag                  502.800000   0.28267000E-01 -0.64950000E-02  0.00000000E+00
                            142.600000   0.10644400E+00 -0.26691000E-01  0.00000000E+00
                             46.470000   0.28681400E+00 -0.73690000E-01  0.00000000E+00
                             16.700000   0.44864100E+00 -0.17077600E+00  0.00000000E+00
                              6.356000   0.26476100E+00 -0.11232700E+00  0.00000000E+00
                              1.316000   0.15333000E-01  0.56281400E+00  0.00000000E+00
                              0.389700  -0.23320000E-02  0.56877800E+00  0.10000000E+01
   17.1 Ag    4  2py         22.670000   0.44878000E-01  0.00000000E+00
   18.1 Ag    5 -2py          4.977000   0.23571800E+00  0.00000000E+00
                              1.347000   0.50852100E+00  0.00000000E+00
                              0.347100   0.45812000E+00  0.10000000E+01
   19.1 Ag    4  3d0          1.640000   0.10000000E+01
              5  3d0   
   20.1 Ag    4  3d2+         1.640000   0.10000000E+01
              5  3d2+  
   21.1 Ag    6  1s       14710.000000   0.72100000E-03 -0.16500000E-03  0.00000000E+00
   22.1 Ag    7  1s        2207.000000   0.55530000E-02 -0.13080000E-02  0.00000000E+00
   23.1 Ag                  502.800000   0.28267000E-01 -0.64950000E-02  0.00000000E+00
                            142.600000   0.10644400E+00 -0.26691000E-01  0.00000000E+00
                             46.470000   0.28681400E+00 -0.73690000E-01  0.00000000E+00
                             16.700000   0.44864100E+00 -0.17077600E+00  0.00000000E+00
                              6.356000   0.26476100E+00 -0.11232700E+00  0.00000000E+00
                              1.316000   0.15333000E-01  0.56281400E+00  0.00000000E+00
                              0.389700  -0.23320000E-02  0.56877800E+00  0.10000000E+01
   24.1 Ag    6  2pz         22.670000   0.44878000E-01  0.00000000E+00
   25.1 Ag    7 -2pz          4.977000   0.23571800E+00  0.00000000E+00
                              1.347000   0.50852100E+00  0.00000000E+00
                              0.347100   0.45812000E+00  0.10000000E+01
   26.1 Ag    6  3d0          1.640000   0.10000000E+01
              7  3d0   
   27.1 Ag    6  3d2+         1.640000   0.10000000E+01
              7  3d2+  
    1.2 B3u   1  2px        399.700000   0.44754100E-02 -0.11625100E-02  0.00000000E+00
    2.2 B3u                  94.190000   0.34170800E-01 -0.86566400E-02  0.00000000E+00
    3.2 B3u                  29.750000   0.14425000E+00 -0.39088600E-01  0.00000000E+00
                             10.770000   0.35392800E+00 -0.93462500E-01  0.00000000E+00
                              4.119000   0.45908500E+00 -0.14799400E+00  0.00000000E+00
                              1.625000   0.20638300E+00  0.30190400E-01  0.00000000E+00
                              0.472600   0.10214100E-01  0.56157300E+00  0.00000000E+00
                              0.140700  -0.60312200E-04  0.53477600E+00  0.10000000E+01
    4.2 B3u   2  1s       14710.000000   0.72100000E-03 -0.16500000E-03  0.00000000E+00
    5.2 B3u   3 -1s        2207.000000   0.55530000E-02 -0.13080000E-02  0.00000000E+00
    6.2 B3u                 502.800000   0.28267000E-01 -0.64950000E-02  0.00000000E+00
                            142.600000   0.10644400E+00 -0.26691000E-01  0.00000000E+00
                             46.470000   0.28681400E+00 -0.73690000E-01  0.00000000E+00
                             16.700000   0.44864100E+00 -0.17077600E+00  0.00000000E+00
                              6.356000   0.26476100E+00 -0.11232700E+00  0.00000000E+00
                              1.316000   0.15333000E-01  0.56281400E+00  0.00000000E+00
                              0.389700  -0.23320000E-02  0.56877800E+00  0.10000000E+01
    7.2 B3u   2  2px         22.670000   0.44878000E-01  0.00000000E+00
    8.2 B3u   3  2px          4.977000   0.23571800E+00  0.00000000E+00
                              1.347000   0.50852100E+00  0.00000000E+00
                              0.347100   0.45812000E+00  0.10000000E+01
    9.2 B3u   2  3d0          1.640000   0.10000000E+01
              3 -3d0   
   10.2 B3u   2  3d2+         1.640000   0.10000000E+01
              3 -3d2+  
   11.2 B3u   4  2px         22.670000   0.44878000E-01  0.00000000E+00
   12.2 B3u   5  2px          4.977000   0.23571800E+00  0.00000000E+00
                              1.347000   0.50852100E+00  0.00000000E+00
                              0.347100   0.45812000E+00  0.10000000E+01
   13.2 B3u   4  3d2-         1.640000   0.10000000E+01
              5 -3d2-  
   14.2 B3u   6  2px         22.670000   0.44878000E-01  0.00000000E+00
   15.2 B3u   7  2px          4.977000   0.23571800E+00  0.00000000E+00
                              1.347000   0.50852100E+00  0.00000000E+00
                              0.347100   0.45812000E+00  0.10000000E+01
   16.2 B3u   6  3d1+         1.640000   0.10000000E+01
              7 -3d1+  
    1.3 B2u   1  2py        399.700000   0.44754100E-02 -0.11625100E-02  0.00000000E+00
    2.3 B2u                  94.190000   0.34170800E-01 -0.86566400E-02  0.00000000E+00
    3.3 B2u                  29.750000   0.14425000E+00 -0.39088600E-01  0.00000000E+00
                             10.770000   0.35392800E+00 -0.93462500E-01  0.00000000E+00
                              4.119000   0.45908500E+00 -0.14799400E+00  0.00000000E+00
                              1.625000   0.20638300E+00  0.30190400E-01  0.00000000E+00
                              0.472600   0.10214100E-01  0.56157300E+00  0.00000000E+00
                              0.140700  -0.60312200E-04  0.53477600E+00  0.10000000E+01
    4.3 B2u   2  2py         22.670000   0.44878000E-01  0.00000000E+00
    5.3 B2u   3  2py          4.977000   0.23571800E+00  0.00000000E+00
                              1.347000   0.50852100E+00  0.00000000E+00
                              0.347100   0.45812000E+00  0.10000000E+01
    6.3 B2u   2  3d2-         1.640000   0.10000000E+01
              3 -3d2-  
    7.3 B2u   4  1s       14710.000000   0.72100000E-03 -0.16500000E-03  0.00000000E+00
    8.3 B2u   5 -1s        2207.000000   0.55530000E-02 -0.13080000E-02  0.00000000E+00
    9.3 B2u                 502.800000   0.28267000E-01 -0.64950000E-02  0.00000000E+00
                            142.600000   0.10644400E+00 -0.26691000E-01  0.00000000E+00
                             46.470000   0.28681400E+00 -0.73690000E-01  0.00000000E+00
                             16.700000   0.44864100E+00 -0.17077600E+00  0.00000000E+00
                              6.356000   0.26476100E+00 -0.11232700E+00  0.00000000E+00
                              1.316000   0.15333000E-01  0.56281400E+00  0.00000000E+00
                              0.389700  -0.23320000E-02  0.56877800E+00  0.10000000E+01
   10.3 B2u   4  2py         22.670000   0.44878000E-01  0.00000000E+00
   11.3 B2u   5  2py          4.977000   0.23571800E+00  0.00000000E+00
                              1.347000   0.50852100E+00  0.00000000E+00
                              0.347100   0.45812000E+00  0.10000000E+01
   12.3 B2u   4  3d0          1.640000   0.10000000E+01
              5 -3d0   
   13.3 B2u   4  3d2+         1.640000   0.10000000E+01
              5 -3d2+  
   14.3 B2u   6  2py         22.670000   0.44878000E-01  0.00000000E+00
   15.3 B2u   7  2py          4.977000   0.23571800E+00  0.00000000E+00
                              1.347000   0.50852100E+00  0.00000000E+00
                              0.347100   0.45812000E+00  0.10000000E+01
   16.3 B2u   6  3d1-         1.640000   0.10000000E+01
              7 -3d1-  
    1.4 B1g   1  3d2-         0.479000   0.10000000E+01
    2.4 B1g   2  2py         22.670000   0.44878000E-01  0.00000000E+00
    3.4 B1g   3 -2py          4.977000   0.23571800E+00  0.00000000E+00
                              1.347000   0.50852100E+00  0.00000000E+00
                              0.347100   0.45812000E+00  0.10000000E+01
    4.4 B1g   2  3d2-         1.640000   0.10000000E+01
              3  3d2-  
    5.4 B1g   4  2px         22.670000   0.44878000E-01  0.00000000E+00
    6.4 B1g   5 -2px          4.977000   0.23571800E+00  0.00000000E+00
                              1.347000   0.50852100E+00  0.00000000E+00
                              0.347100   0.45812000E+00  0.10000000E+01
    7.4 B1g   4  3d2-         1.640000   0.10000000E+01
              5  3d2-  
    8.4 B1g   6  3d2-         1.640000   0.10000000E+01
              7  3d2-  
    1.5 B1u   1  2pz        399.700000   0.44754100E-02 -0.11625100E-02  0.00000000E+00
    2.5 B1u                  94.190000   0.34170800E-01 -0.86566400E-02  0.00000000E+00
    3.5 B1u                  29.750000   0.14425000E+00 -0.39088600E-01  0.00000000E+00
                             10.770000   0.35392800E+00 -0.93462500E-01  0.00000000E+00
                              4.119000   0.45908500E+00 -0.14799400E+00  0.00000000E+00
                              1.625000   0.20638300E+00  0.30190400E-01  0.00000000E+00
                              0.472600   0.10214100E-01  0.56157300E+00  0.00000000E+00
                              0.140700  -0.60312200E-04  0.53477600E+00  0.10000000E+01
    4.5 B1u   2  2pz         22.670000   0.44878000E-01  0.00000000E+00
    5.5 B1u   3  2pz          4.977000   0.23571800E+00  0.00000000E+00
                              1.347000   0.50852100E+00  0.00000000E+00
                              0.347100   0.45812000E+00  0.10000000E+01
    6.5 B1u   2  3d1+         1.640000   0.10000000E+01
              3 -3d1+  
    7.5 B1u   4  2pz         22.670000   0.44878000E-01  0.00000000E+00
    8.5 B1u   5  2pz          4.977000   0.23571800E+00  0.00000000E+00
                              1.347000   0.50852100E+00  0.00000000E+00
                              0.347100   0.45812000E+00  0.10000000E+01
    9.5 B1u   4  3d1-         1.640000   0.10000000E+01
              5 -3d1-  
   10.5 B1u   6  1s       14710.000000   0.72100000E-03 -0.16500000E-03  0.00000000E+00
   11.5 B1u   7 -1s        2207.000000   0.55530000E-02 -0.13080000E-02  0.00000000E+00
   12.5 B1u                 502.800000   0.28267000E-01 -0.64950000E-02  0.00000000E+00
                            142.600000   0.10644400E+00 -0.26691000E-01  0.00000000E+00
                             46.470000   0.28681400E+00 -0.73690000E-01  0.00000000E+00
                             16.700000   0.44864100E+00 -0.17077600E+00  0.00000000E+00
                              6.356000   0.26476100E+00 -0.11232700E+00  0.00000000E+00
                              1.316000   0.15333000E-01  0.56281400E+00  0.00000000E+00
                              0.389700  -0.23320000E-02  0.56877800E+00  0.10000000E+01
   13.5 B1u   6  2pz         22.670000   0.44878000E-01  0.00000000E+00
   14.5 B1u   7  2pz          4.977000   0.23571800E+00  0.00000000E+00
                              1.347000   0.50852100E+00  0.00000000E+00
                              0.347100   0.45812000E+00  0.10000000E+01
   15.5 B1u   6  3d0          1.640000   0.10000000E+01
              7 -3d0   
   16.5 B1u   6  3d2+         1.640000   0.10000000E+01
              7 -3d2+  
    1.6 B2g   1  3d1+         0.479000   0.10000000E+01
    2.6 B2g   2  2pz         22.670000   0.44878000E-01  0.00000000E+00
    3.6 B2g   3 -2pz          4.977000   0.23571800E+00  0.00000000E+00
                              1.347000   0.50852100E+00  0.00000000E+00
                              0.347100   0.45812000E+00  0.10000000E+01
    4.6 B2g   2  3d1+         1.640000   0.10000000E+01
              3  3d1+  
    5.6 B2g   4  3d1+         1.640000   0.10000000E+01
              5  3d1+  
    6.6 B2g   6  2px         22.670000   0.44878000E-01  0.00000000E+00
    7.6 B2g   7 -2px          4.977000   0.23571800E+00  0.00000000E+00
                              1.347000   0.50852100E+00  0.00000000E+00
                              0.347100   0.45812000E+00  0.10000000E+01
    8.6 B2g   6  3d1+         1.640000   0.10000000E+01
              7  3d1+  
    1.7 B3g   1  3d1-         0.479000   0.10000000E+01
    2.7 B3g   2  3d1-         1.640000   0.10000000E+01
              3  3d1-  
    3.7 B3g   4  2pz         22.670000   0.44878000E-01  0.00000000E+00
    4.7 B3g   5 -2pz          4.977000   0.23571800E+00  0.00000000E+00
                              1.347000   0.50852100E+00  0.00000000E+00
                              0.347100   0.45812000E+00  0.10000000E+01
    5.7 B3g   4  3d1-         1.640000   0.10000000E+01
              5  3d1-  
    6.7 B3g   6  2py         22.670000   0.44878000E-01  0.00000000E+00
    7.7 B3g   7 -2py          4.977000   0.23571800E+00  0.00000000E+00
                              1.347000   0.50852100E+00  0.00000000E+00
                              0.347100   0.45812000E+00  0.10000000E+01
    8.7 B3g   6  3d1-         1.640000   0.10000000E+01
              7  3d1-  
    1.8 Au    2  3d1-         1.640000   0.10000000E+01
              3 -3d1-  
    2.8 Au    4  3d1+         1.640000   0.10000000E+01
              5 -3d1+  
    3.8 Au    6  3d2-         1.640000   0.10000000E+01
              7 -3d2-  

 NUCLEAR CHARGE:                   70
 NUMBER OF PRIMITIVE AOS:         204
 NUMBER OF SYMMETRY AOS:          197
 NUMBER OF CONTRACTIONS:          102   (  27Ag  +  16B3u +  16B2u +   8B1g +  16B1u +   8B2g +   8B3g +   3Au  )
 NUMBER OF CORE ORBITALS:          11   (   5Ag  +   2B3u +   2B2u +   0B1g +   2B1u +   0B2g +   0B3g +   0Au  )
 NUMBER OF VALENCE ORBITALS:       28   (   7Ag  +   5B3u +   5B2u +   2B1g +   5B1u +   2B2g +   2B3g +   0Au  )


 NUCLEAR REPULSION ENERGY  567.18892689


 Eigenvalues of metric

         1 0.438E-02 0.272E-01 0.272E-01 0.414E-01 0.142E+00 0.143E+00 0.143E+00 0.276E+00
         2 0.147E-01 0.513E-01 0.146E+00 0.186E+00 0.190E+00 0.380E+00 0.987E+00 0.998E+00
         3 0.147E-01 0.513E-01 0.146E+00 0.186E+00 0.190E+00 0.380E+00 0.987E+00 0.998E+00
         4 0.163E+00 0.205E+00 0.606E+00 0.997E+00 0.100E+01 0.109E+01 0.146E+01 0.248E+01
         5 0.147E-01 0.513E-01 0.146E+00 0.186E+00 0.190E+00 0.380E+00 0.987E+00 0.998E+00
         6 0.163E+00 0.205E+00 0.606E+00 0.997E+00 0.100E+01 0.109E+01 0.146E+01 0.248E+01
         7 0.163E+00 0.205E+00 0.606E+00 0.997E+00 0.100E+01 0.109E+01 0.146E+01 0.248E+01
         8 0.100E+01 0.100E+01 0.100E+01


 Contracted 2-electron integrals neglected if value below      1.0D-11
 AO integral compression algorithm  1   Integral accuracy      1.0D-11

     9.699 MB (compressed) written to integral file ( 52.8%)


 NUMBER OF SORTED TWO-ELECTRON INTEGRALS:    1857570.     BUFFER LENGTH:  32768
 NUMBER OF SEGMENTS:   1  SEGMENT LENGTH:    1857570      RECORD LENGTH: 524288

 Memory used in sort:       2.41 MW

 SORT1 READ     2354386. AND WROTE     1842787. INTEGRALS IN      6 RECORDS. CPU TIME:     0.13 SEC, REAL TIME:     0.15 SEC
 SORT2 READ     1842787. AND WROTE     1857570. INTEGRALS IN     37 RECORDS. CPU TIME:     0.12 SEC, REAL TIME:     0.14 SEC

 FILE SIZES:   FILE 1:    17.6 MBYTE,  FILE 4:    25.2 MBYTE,   TOTAL:     42.8 MBYTE

 OPERATOR DM      FOR CENTER  0  COORDINATES:    0.000000    0.000000    0.000000


 **********************************************************************************************************************************
 DATASETS  * FILE   NREC   LENGTH (MB)   RECORD NAMES
              1      19       15.59       500      610      700      900      950      970     1000      129      960     1100   
                                          VAR    BASINP    GEOM    SYMINP    ZMAT    AOBASIS   BASIS     P2S    ABASIS      S 
                                         1400     1410     1200     1210     1080     1600     1650     1300     1700   
                                           T        V       H0       H01     AOSYM     SMH    MOLCAS    ERIS     OPER   

 PROGRAMS   *        TOTAL       INT
 CPU TIMES  *         1.17      1.06
 REAL TIME  *         1.24 SEC
 DISK USED  *        43.20 MB      
 **********************************************************************************************************************************

1PROGRAM * RHF-SCF (CLOSED SHELL)       Authors: W. Meyer, H.-J. Werner


 NUMBER OF ELECTRONS:      35+   35-
 CONVERGENCE THRESHOLDS:    1.00E-05 (Density)    1.40E-07 (Energy)
 MAX. NUMBER OF ITERATIONS:       60
 INTERPOLATION TYPE:            DIIS
 INTERPOLATION STEPS:              2 (START)      1 (STEP)
 LEVEL SHIFTS:                  0.00 (CLOSED)  0.00 (OPEN) 



 Orbital guess generated from atomic densities. Full valence occupancy:   12   7   7   2   7   2   2   0


 Molecular orbital dump at record        2100.2

 Initial occupancy:  11   6   6   2   6   2   2   0

 ITERATION    DDIFF          GRAD             ENERGY        2-EL.EN.            DIPOLE MOMENTS         DIIS   ORB.
    1      0.000D+00      0.000D+00      -993.71436177   1886.064234    0.00000    0.00000    0.00000    0    start
    2      0.000D+00      0.311D-01      -993.91891213   1901.066234    0.00000    0.00000    0.00000    1    diag
    3      0.105D+00      0.187D-01      -994.00471851   1898.158904    0.00000    0.00000    0.00000    2    diag
    4      0.338D-01      0.161D-02      -994.00582630   1897.586521    0.00000    0.00000    0.00000    3    diag
    5      0.339D-02      0.516D-03      -994.00597439   1897.872624    0.00000    0.00000    0.00000    4    diag
    6      0.134D-02      0.760D-04      -994.00597852   1897.869899    0.00000    0.00000    0.00000    5    diag
    7      0.235D-03      0.690D-05      -994.00597855   1897.872683    0.00000    0.00000    0.00000    6    diag
    8      0.196D-04      0.109D-05      -994.00597855   1897.872371    0.00000    0.00000    0.00000    7    diag
    9      0.314D-05      0.135D-06      -994.00597855   1897.872378    0.00000    0.00000    0.00000    0    orth

 Final occupancy:  11   6   6   2   6   2   2   0

 !RHF STATE 1.1 Energy               -994.005978553088
 Nuclear energy                       567.18892689
 One-electron energy                -2510.13109457
 Two-electron energy                  948.93618912
 Virial quotient                       -1.00005920
 !RHF STATE 1.1 Dipole moment           0.00000000     0.00000000     0.00000000
 Dipole moment /Debye                   0.00000000     0.00000000     0.00000000

 Orbital energies:

         1.1          2.1          3.1          4.1          5.1          6.1          7.1          8.1          9.1         10.1
    -92.475212   -26.391070   -26.391070   -26.391017    -9.416314    -1.856519    -1.664739    -1.664739    -1.108213    -0.732755

        11.1         12.1         13.1
     -0.732755     0.148854     0.668228

         1.2          2.2          3.2          4.2          5.2          6.2          7.2          8.2
    -26.391057    -7.103862    -1.721385    -0.930342    -0.727483    -0.712541     0.346086     0.630468

         1.3          2.3          3.3          4.3          5.3          6.3          7.3          8.3
    -26.391057    -7.103862    -1.721385    -0.930342    -0.727483    -0.712541     0.346086     0.630468

         1.4          2.4          3.4          4.4
     -0.834718    -0.680265     0.696495     1.262959

         1.5          2.5          3.5          4.5          5.5          6.5          7.5          8.5
    -26.391057    -7.103862    -1.721385    -0.930342    -0.727483    -0.712541     0.346086     0.630468

         1.6          2.6          3.6          4.6
     -0.834718    -0.680265     0.696495     1.262959

         1.7          2.7          3.7          4.7
     -0.834718    -0.680265     0.696495     1.262959

         1.8          2.8
      3.878786     3.880455

 HOMO      2.4    -0.680265 =     -18.5110eV
 LUMO     12.1     0.148854 =       4.0505eV
 LUMO-HOMO         0.829119 =      22.5615eV


 **********************************************************************************************************************************
 DATASETS  * FILE   NREC   LENGTH (MB)   RECORD NAMES
              1      19       15.59       500      610      700      900      950      970     1000      129      960     1100   
                                          VAR    BASINP    GEOM    SYMINP    ZMAT    AOBASIS   BASIS     P2S    ABASIS      S 
                                         1400     1410     1200     1210     1080     1600     1650     1300     1700   
                                           T        V       H0       H01     AOSYM     SMH    MOLCAS    ERIS     OPER   

              2       4        0.52       700     1000      520     2100   
                                         GEOM     BASIS   MCVARS     RHF  

 PROGRAMS   *        TOTAL        HF       INT
 CPU TIMES  *         1.23      0.06      1.06
 REAL TIME  *         1.32 SEC
 DISK USED  *        43.20 MB      
 **********************************************************************************************************************************


 PROGRAM * MATROP


 Orbitals ORB read from record           2100.2  Type=RHF/CANONICAL (state 1.1)

 MATRIX ORB             

 SYMMETRY BLOCK 1.1
   0.100000173602854E+01  0.248306424225381E-12  0.542512763725870E-09 -0.342516724682322E-03 -0.160491472502046E-04  0.737509386899642E-02 -0.283120687537298E-15 -0.114221417572664E-10 -0.169700224245622E-01 -0.648761690538489E-10 -0.160013982522590E-14  0.181954661240062E-01 -0.240075007334884E+00 -0.132859519804881E-13 -0.606787398050499E-10  0.548127216135329E-01  0.315279867563461E-09  0.478895754530894E-13  0.987074091357624E-13 -0.193565687841018E-09 -0.266779782999083E+00  0.506527894713921E-14  0.233125544630041E-13 -0.326148118016205E-08  0.583192486091439E-01 -0.480220392061344E-13  0.112353833618509E-08
  -0.311342974271987E-04  0.165026336515085E-11  0.360807976297593E-08 -0.227759715874877E-02  0.999592788583364E+00  0.394290204805079E-01 -0.129472889676584E-14 -0.868269786592027E-10 -0.123622716879448E+00 -0.425979966513251E-09 -0.135947424700633E-13  0.175668797935632E+00 -0.170958164674293E+01 -0.940810120114236E-13 -0.671925704861742E-09  0.452629004697497E+00  0.232219202188309E-08  0.369236212181247E-12  0.677005767312224E-12 -0.134612075018673E-08 -0.182184925265322E+01  0.342706603262537E-13  0.162553517416035E-12 -0.224932221086815E-07  0.355357158859174E+00 -0.323295791069396E-12  0.753038315156809E-08
   0.158694306364143E-03  0.298654146276192E-11  0.652237277241571E-08 -0.412312470845477E-02 -0.108938995816786E-02  0.549991717305407E+00  0.198622525621829E-13 -0.179210982790877E-09 -0.969859279780125E+00 -0.592835070224054E-09 -0.675690286983385E-13  0.137091308983341E+01 -0.398922471548786E+01 -0.215994282431856E-12 -0.216129269764042E-08  0.136374863320221E+01  0.585940039774246E-08  0.103949308730212E-11  0.128228141333823E-11 -0.289286256597975E-08 -0.356439085649041E+01  0.633787095851154E-13  0.343507461319072E-12 -0.462600080975877E-07  0.226877935497069E+00 -0.582978441103885E-12  0.130460504418462E-07
   0.119921556495078E-03 -0.844431964203699E-11 -0.184548415827588E-07  0.116437570904825E-01  0.370155813361047E-02 -0.314610283177064E+00  0.175686511374150E-13  0.215557404698971E-09  0.530210414446873E+00  0.239224146507698E-08  0.807700452069814E-14  0.182422772701099E+00  0.667022722938080E+01  0.374940276585079E-12 -0.264802653692238E-08 -0.217656984176340E+00 -0.677828604238683E-08 -0.765343879071150E-12 -0.314939693243913E-11  0.577099149718177E-08  0.834124928853045E+01 -0.161637249307603E-12 -0.700171278715326E-12  0.999053672615019E-07 -0.234901046109655E+01  0.155360922097671E-11 -0.369872199887615E-07
  -0.919503907122285E-11  0.608675571491025E-07  0.590879660687159E-03  0.835300978571073E-09 -0.914519079663039E-10  0.693168631073283E-10  0.181213309818041E-05  0.107503106257011E+00  0.463413591514745E-09 -0.267331510380994E+00  0.286682298884132E-04 -0.301643594592301E-08 -0.272845281748199E-08  0.104354082162785E-04  0.146445484087640E+01  0.323054123346235E-08  0.553715263888361E+00  0.425576712003240E-04  0.601018302476693E-04 -0.682014360206989E+00  0.933506998561843E-11 -0.572341347766063E-15  0.384936894737128E-07 -0.100350332676166E-01  0.325775290278395E-08  0.890656082292837E-05 -0.108121123592335E+01
  -0.957460028217329E-16  0.590879594856361E-03 -0.608675520379210E-07  0.331756347499800E-12  0.322714263323391E-14  0.105771040950478E-13  0.107503106496810E+00 -0.181213311017474E-05 -0.329671102215143E-14  0.286682299209962E-04  0.267331510502107E+00 -0.260546487240160E-13 -0.363559136391166E-13  0.146445484224171E+01 -0.104354081497213E-04 -0.204890314935333E-12 -0.425576713861956E-04  0.553715264474633E+00 -0.682014358116395E+00 -0.601018299835737E-04 -0.103551339396775E-12 -0.209014113826845E-09 -0.100350338295048E-01 -0.384936861538543E-07 -0.294995150585014E-13 -0.108121123503360E+01 -0.890656084250050E-05
   0.216923887566636E-04  0.707303622581223E+00 -0.408460005577462E+00  0.577973140542947E+00  0.122261220777315E-03 -0.706714263485776E-02 -0.105133324902130E-02  0.607011173969463E-03  0.462491948699459E-02  0.240441950087156E-02  0.416354539969606E-02  0.565843903328805E-02  0.174145215964317E-01 -0.281393804293818E-01  0.162465456130577E-01  0.290963766665082E-01 -0.537921175336340E-01  0.931541448406552E-01 -0.512844806812720E+00  0.296030831969647E+00  0.620262556319474E+00 -0.393465328119063E-09  0.395243062554652E-01 -0.228191602286643E-01 -0.247505747314151E+00 -0.205255421289093E+00  0.118502015693273E+00
   0.702801199514373E-04  0.114890894328844E-02 -0.663484615348080E-03  0.245179597875961E-02  0.852905163468863E-03  0.441190156282574E+00  0.693013562135024E+00 -0.400127142364622E+00  0.332967295434678E+00 -0.433442798163800E-01 -0.750559061558582E-01 -0.181969624661499E+00 -0.221509184243537E+00 -0.426842121637401E+00  0.246441466093386E+00  0.848726424448519E-01 -0.226514544114134E+00  0.392265067875666E+00 -0.228872997397655E+01  0.132112995816620E+01  0.251675501745229E+01 -0.180616722336302E-08  0.177918025823213E+00 -0.102720084346632E+00 -0.993113462014059E+00 -0.783626147638877E+00  0.452418150156021E+00
  -0.119021711759192E-03 -0.140053846229225E-02  0.808801371230672E-03 -0.484881420323038E-02 -0.107136023141649E-02  0.185875753446782E-01 -0.197294484178533E-01  0.113912456871577E-01  0.932715966464936E-02 -0.473976122521553E-01 -0.820747435690934E-01 -0.233017324987097E+00 -0.824678655920218E+00 -0.218743539617706E+00  0.126293723569561E+00 -0.264297374126654E+00  0.347308951660838E+00 -0.601449986620214E+00  0.283403068866939E+01 -0.163589540530425E+01 -0.430246187980334E+01  0.216397791702365E-08 -0.204225776080326E+00  0.117908716247801E+00  0.168383138842157E+01  0.133207810409921E+01 -0.769061002669895E+00
   0.366756027466615E-05 -0.116661876039143E-02  0.673709255455757E-03 -0.857308028408566E-03 -0.449450832246722E-03 -0.988607790335277E-01 -0.544999957130319E-01  0.314668120910621E-01  0.321770978655927E+00 -0.374745101868218E+00 -0.648916838340494E+00  0.479107827342346E+00 -0.133811525815398E+00 -0.696196785321826E-01  0.401956041203534E-01 -0.752078475140153E+00 -0.568555787539353E+00  0.984592738844284E+00  0.279876292173997E+00 -0.161553769240614E+00 -0.267245276382388E-01  0.972777731290070E-09 -0.738524580107756E-01  0.426383584326832E-01  0.987065347853951E-01  0.379166004306642E-01 -0.218907425794614E-01
   0.102099174688623E-03  0.140592764735603E-02 -0.811909023428725E-03  0.200664183285118E-02  0.162823277771856E-02 -0.850745275709104E-03  0.151910985058850E-01 -0.877092615205120E-02 -0.614385682092190E-02  0.216775852488874E-01  0.375373815872047E-01  0.167984104060819E+00  0.606635632997522E+00  0.100986054231911E+01 -0.583052853472100E+00  0.110964803019275E+01  0.566606996883116E+00 -0.981217932670129E+00 -0.859234648085810E+00  0.495978402732346E+00  0.918255069146480E+00 -0.149113591211550E-08  0.117344376620082E+00 -0.677481971553020E-01 -0.530898260487752E+00 -0.662419895059911E+00  0.382441024272676E+00
   0.251578111112422E-04  0.986385684257009E-04 -0.274656020613446E-04  0.765596468252933E-04  0.228878975992679E-03 -0.475232381578015E-02 -0.953752452279312E-03  0.131897447521641E-02  0.722014084540559E-02 -0.371224380071353E-02 -0.423927152724990E-02 -0.281190603547018E-02  0.185285823359269E-01 -0.902973522815824E-02  0.118290712128544E-01 -0.200984754381042E-01  0.240798546222011E-01  0.393728210954442E-02  0.747813517997686E-01  0.776988452763362E-02 -0.775048359171351E-01 -0.500032772986007E+00  0.352110682215153E+00  0.611959287983281E+00 -0.285883400165137E+00 -0.388392842237647E+00  0.234040892762765E+00
  -0.435746154692926E-04 -0.141346401232202E-03  0.986561844247139E-04 -0.132605152151390E-03 -0.396430058401330E-03  0.823126642967958E-02  0.242026623537925E-02 -0.953815562394873E-03 -0.125056505320616E-01  0.424059255694620E-02  0.860688294380315E-02  0.487036362476649E-02 -0.320924470368299E-01  0.222556794333443E-01 -0.902997796636618E-02  0.348115798170652E-01  0.393392975308586E-02  0.195362150230138E-01 -0.785941534308797E-01  0.747751107455633E-01  0.134242295525263E+00 -0.288694056164615E+00  0.205371473185163E+00  0.352113828169357E+00  0.495164566782319E+00  0.682522490141482E+00 -0.388385290160352E+00
   0.216923887566693E-04 -0.707387760594827E+00 -0.408314275716404E+00  0.577973139746790E+00  0.122261220769591E-03 -0.706714263486762E-02  0.105135371267945E-02  0.606975729893735E-03  0.462491948700272E-02  0.240352646085840E-02 -0.416406099658393E-02  0.565843903331362E-02  0.174145215964149E-01  0.281396119657081E-01  0.162461445803173E-01  0.290963766665851E-01 -0.537777975404023E-01 -0.931624124925367E-01  0.512792624008158E+00  0.296121215237658E+00  0.620262556319733E+00  0.393417818002553E-09 -0.395241311889089E-01 -0.228194634530084E-01 -0.247505747314189E+00  0.205253468922488E+00  0.118505397291897E+00
   0.702801199514281E-04 -0.114904561510663E-02 -0.663247898986777E-03  0.245179597747192E-02  0.852905163438940E-03  0.441190156282547E+00 -0.693027051279511E+00 -0.400103778480920E+00  0.332967295434696E+00 -0.433281810542221E-01  0.750652007805245E-01 -0.181969624661379E+00 -0.221509184243653E+00  0.426845633777860E+00  0.246435382887339E+00  0.848726424451701E-01 -0.226454243704239E+00 -0.392299882333313E+00  0.228849709192880E+01  0.132153332170210E+01  0.251675501745347E+01  0.180596411072572E-08 -0.177917237763901E+00 -0.102721449306114E+00 -0.993113462014257E+00  0.783618693874695E+00  0.452431060456213E+00
  -0.119021711759269E-03  0.140070507013562E-02  0.808512810182294E-03 -0.484881420166082E-02 -0.107136023138045E-02  0.185875753447353E-01  0.197298324411300E-01  0.113905805392013E-01  0.932715966460753E-02 -0.473800080175761E-01  0.820849073786543E-01 -0.233017324987240E+00 -0.824678655920145E+00  0.218745339482294E+00  0.126290606112838E+00 -0.264297374127144E+00  0.347216494586079E+00  0.601503366736870E+00 -0.283374232137392E+01 -0.163639487210565E+01 -0.430246187980473E+01 -0.216368613523771E-08  0.204224871495280E+00  0.117910283036266E+00  0.168383138842177E+01 -0.133206543352140E+01 -0.769082948757606E+00
   0.366756027469290E-05  0.116675753655841E-02  0.673468890237013E-03 -0.857308027095985E-03 -0.449450832241746E-03 -0.988607790335212E-01  0.545010565267760E-01  0.314649747077341E-01  0.321770978655913E+00 -0.374605915515195E+00  0.648997197618768E+00  0.479107827342404E+00 -0.133811525815600E+00  0.696202513765000E-01  0.401946119247867E-01 -0.752078475139659E+00 -0.568404432370712E+00 -0.984680123792227E+00 -0.279847814300002E+00 -0.161603094365042E+00 -0.267245276383188E-01 -0.972735455881860E-09  0.738521308930178E-01  0.426389250172621E-01  0.987065347854350E-01 -0.379162397721891E-01 -0.218913672583368E-01
   0.102099174688717E-03 -0.140609489213952E-02 -0.811619352014245E-03  0.200664183127057E-02  0.162823277770735E-02 -0.850745275725664E-03 -0.151913941926067E-01 -0.877041400757984E-02 -0.614385682090179E-02  0.216695338454437E-01 -0.375420300670939E-01  0.167984104060778E+00  0.606635632997789E+00 -0.100986885164921E+01 -0.583038461290026E+00  0.110964803019232E+01  0.566456160502003E+00  0.981305018096360E+00  0.859147219543586E+00  0.496129833407682E+00  0.918255069146741E+00  0.149103055306691E-08 -0.117343856861890E+00 -0.677490974031308E-01 -0.530898260487782E+00  0.662413594195548E+00  0.382451937690623E+00
   0.251578111112272E-04 -0.986442249795341E-04 -0.274452796117596E-04  0.765596467144055E-04  0.228878975993935E-03 -0.475232381578081E-02  0.953796918495347E-03  0.131894232048698E-02  0.722014084540598E-02 -0.371133448911195E-02  0.424006762064349E-02 -0.281190603546980E-02  0.185285823359277E-01  0.902990381036866E-02  0.118289425235295E-01 -0.200984754381044E-01  0.240804595641399E-01 -0.393358058469697E-02 -0.747827200647991E-01  0.775670434406364E-02 -0.775048359172984E-01  0.500032772986566E+00 -0.352115377071658E+00  0.611956586620430E+00 -0.285883400165102E+00  0.388388986325197E+00  0.234047291562912E+00
   0.435746154692947E-04 -0.141366723878343E-03 -0.986270616450069E-04  0.132605151992304E-03  0.396430058401649E-03 -0.823126642968140E-02  0.242029839011204E-02  0.953733967103720E-03  0.125056505320628E-01 -0.423874648101856E-02  0.860779225539548E-02 -0.487036362476527E-02  0.320924470368321E-01  0.222558081226764E-01  0.902966078653418E-02 -0.348115798170767E-01 -0.393693275119495E-02  0.195356100810492E-01 -0.785809732472920E-01 -0.747889616457041E-01 -0.134242295525476E+00 -0.288694056164943E+00  0.205374174547703E+00 -0.352112252577225E+00 -0.495164566782175E+00  0.682516091341411E+00  0.388396534770803E+00
   0.216923864369310E-04  0.841367549639049E-04  0.816771535715205E+00  0.577975080092375E+00  0.122261196304568E-03 -0.706714261882645E-02 -0.204636489324028E-07 -0.121398693881167E-02  0.462491955160802E-02 -0.480794562755357E-02  0.515596877337356E-06  0.565843866840303E-02  0.174145217298066E-01 -0.231536331759005E-06 -0.324926935644461E-01  0.290963761566784E-01  0.107569913771034E+00  0.826765188119416E-05  0.521828038728446E-04 -0.592152046292523E+00  0.620262554674801E+00  0.103008136964152E-13 -0.175066696737911E-06  0.456386439418215E-01 -0.247505746844982E+00  0.195236697181035E-05 -0.237007421365517E+00
   0.702801108593419E-04  0.136666478007811E-06  0.132672083452418E-02  0.245179904205255E-02  0.852905073473720E-03  0.441190155903364E+00  0.134891445393763E-04  0.800230921232774E+00  0.332967295457816E+00  0.866724622463547E-01 -0.929462473572268E-05 -0.181969625316361E+00 -0.221509182794494E+00 -0.351214054523313E-05 -0.492876865356145E+00  0.848726387702631E-01  0.452968781824260E+00  0.348144576098663E-04  0.232882044983187E-03 -0.264266327609441E+01  0.251675500994763E+01  0.516360107301095E-13 -0.788059882616802E-06  0.205441614679790E+00 -0.993113460350561E+00  0.745376567140448E-05 -0.904849243734907E+00
  -0.119021695051997E-03 -0.166597285142870E-06 -0.161729109336454E-02 -0.484881787183544E-02 -0.107136006914536E-02  0.185875752269603E-01 -0.384023342326974E-06 -0.227818260877197E-01  0.932715914420396E-02  0.947776173893368E-01 -0.101638094797655E-04 -0.233017321799084E+00 -0.824678655436729E+00 -0.179986468602452E-05 -0.252584309780147E+00 -0.264297372948173E+00 -0.694525437708518E+00 -0.533801165875395E-04 -0.288367290641368E-03  0.327229027041309E+01 -0.430246187124921E+01 -0.325262531992643E-13  0.904586034123554E-06 -0.235819141836125E+00  0.168383138447046E+01 -0.126705803572592E-04  0.153814401017016E+01
   0.366756083820024E-05 -0.138774300120174E-06 -0.134717407322890E-02 -0.857311230699919E-03 -0.449450831594531E-03 -0.988607790344989E-01 -0.106081376220526E-05 -0.629317869472232E-01  0.321770978334785E+00  0.749351018245097E+00 -0.803592784010945E-04  0.479107826367396E+00 -0.133811525799986E+00 -0.572844339883954E-06 -0.803902076259253E-01 -0.752078478662181E+00  0.113696021641672E+01  0.873849471452115E-04 -0.284778738669527E-04  0.323156862918388E+00 -0.267245250615108E-01 -0.383328662075346E-13  0.327117752287226E-06 -0.852772840744510E-01  0.987065352249851E-01 -0.360658520897754E-06  0.437821112120549E-01
   0.102099165244893E-03  0.167240414368147E-06  0.162351882597377E-02  0.200664559628308E-02  0.162823269201710E-02 -0.850745164095150E-03  0.295686746226774E-06  0.175413401582154E-01 -0.614385648111284E-02 -0.433471179579509E-01  0.464847988465117E-05  0.167984101172214E+00  0.606635629937845E+00  0.830933020803173E-05  0.116609130378227E+01  0.110964803827251E+01 -0.113306315322614E+01 -0.870854250348925E-04  0.874285410220875E-04 -0.992108234073763E+00  0.918255065134016E+00  0.460500248823043E-13 -0.519758380144703E-06  0.135497325025884E+00 -0.530898258414059E+00  0.630086495830918E-05 -0.764892977408539E+00
  -0.503156293422639E-04 -0.204278649588621E-07 -0.198306975854624E-03 -0.153119703693557E-03 -0.457757996870595E-03  0.950464767847142E-02  0.500799188456385E-07  0.297094448969409E-02 -0.144402813787678E-01 -0.110551119813314E-01  0.118553361441588E-05  0.562381174556165E-02 -0.370571648337662E-01  0.195739321214245E-06  0.274691123867254E-01  0.401969502708750E-01  0.172637903661167E-01  0.132686738534273E-05  0.107302413690875E-04 -0.121762992840823E+00  0.155009660099381E+00  0.160782395765411E-14 -0.797982186912847E-08  0.208027625077874E-02  0.571766788263368E+00 -0.746947976516196E-05  0.906756891484296E+00
  -0.638750742368262E-17  0.294953230899622E-04 -0.303836498280858E-08  0.162820319737959E-13 -0.104110280679840E-14 -0.710472214309229E-16  0.768296303280796E-03 -0.129508364534879E-07  0.221720053965116E-16  0.135551060955784E-06  0.126401490115088E-02  0.209915092012577E-16  0.903430470907770E-15  0.661563805794009E-02 -0.471416952584845E-07 -0.577347501794172E-14 -0.202539415516752E-05  0.263522797685660E-01  0.509387226945303E-01  0.448892375879018E-05  0.640437325298042E-13  0.577388096559874E+00  0.815250503357651E+00  0.312724420955109E-05  0.273988233607567E-13  0.980649412294074E-02  0.807817481276269E-07

 SYMMETRY BLOCK 2.1
   0.137382124223749E-03  0.999530435465044E+00 -0.161240283620894E-01 -0.119072014518682E-02 -0.287725033010292E-10 -0.665775868607258E-02  0.796154830046836E-01 -0.226247451267373E+00  0.125979182285197E+00  0.792776067511959E-10  0.188127995541940E+00 -0.487416816587468E-01  0.256914005256720E-09  0.321192829756553E-09 -0.843998898115564E-01 -0.869532419988504E-01
   0.858419875798159E-03 -0.586594518333982E-02  0.265530046006088E+00 -0.625542135199006E+00 -0.107015576675100E-08 -0.246134900295561E+00  0.138191292033740E+01 -0.174718506925177E+01  0.735778869473274E+00  0.392121985300654E-09  0.959095782925926E+00 -0.429788349093734E+00  0.184005118424963E-08  0.136894354386914E-08 -0.453938959809944E+00 -0.821366162958926E+00
   0.260109850042282E-02  0.257213467754707E-02 -0.155453966044904E+00  0.314082512690912E+00  0.107351732528084E-08  0.271398630645140E+00  0.366392035234771E+00  0.322561442596925E+01  0.180210584655981E+00  0.109356020527647E-09 -0.211351285175369E+01 -0.205708885976786E+01 -0.159384877104223E-08 -0.593343726875997E-08  0.134027701379997E+01 -0.234284827386544E+00
   0.100070068773050E+01 -0.446524696276244E-03 -0.102019764542205E-01  0.692293683511212E-02  0.343899928510612E-10  0.136016709427752E-01  0.182296911395663E-01  0.498176036301508E-01 -0.598514059467877E-01  0.101571045982868E-09 -0.148052886312493E-01 -0.893797601859626E+00  0.229234077732140E-09 -0.699319112597318E-09  0.144455176684017E+00 -0.265945007116738E+00
   0.294667786328714E-02  0.327038138642361E-03  0.897307172236105E+00  0.347917813212394E+00  0.199120849931258E-09  0.541339181392647E-01 -0.337717670012034E+00 -0.119928418975144E-01 -0.424565347835731E+00  0.384658335381803E-09  0.186089461911661E-01 -0.382064008810959E+01  0.100334373391199E-08 -0.259272410865715E-08  0.558808376712279E+00 -0.107597896042592E+01
  -0.504332997977009E-02  0.154138317749135E-02  0.375595556489712E-01  0.249709761170947E-01 -0.356064507721981E-09 -0.124586571171419E+00 -0.679721306718414E+00 -0.115278554554759E+01  0.158721231174224E-01 -0.694392138558980E-09  0.686570688633605E+00  0.566610075795937E+01 -0.105554221917916E-08  0.578837300579176E-08 -0.119446549251421E+01  0.173137869269294E+01
  -0.159669747684931E-02 -0.189979921754968E-02 -0.113773652920408E+00  0.620861210600204E+00  0.186216174541714E-08  0.478933548823832E+00  0.567660206358998E+00 -0.423814306262417E+00 -0.105228442291214E+01 -0.656836057103893E-09 -0.756756073713705E+00  0.246731558260031E+00 -0.535420724190252E-09 -0.970675321899590E-09  0.172985770103561E+00  0.128355857108346E+00
   0.225754033580412E-02 -0.373202418787606E-03 -0.727667160531351E-02 -0.963253908222462E-02  0.161764346145556E-09  0.470506435142641E-01  0.342641172130843E+00  0.426729246431910E+00  0.158982954647073E+01  0.985190575983300E-09  0.101307753463574E+01 -0.100924856140160E+01  0.106298962764756E-08  0.449476910167537E-09 -0.119989943561102E+00 -0.529179339834456E+00
   0.914480145107795E-04 -0.432504605700756E-03 -0.595766775347346E-02  0.971971609805563E-02 -0.290254642263691E-02  0.931403796074996E-02 -0.226799442996049E-02  0.200216620296786E-01 -0.215926355621627E-01 -0.358571721377134E-01 -0.405680144149569E-01  0.480708180125707E-01  0.102201350382011E+00  0.859885414653033E+00 -0.296247174074089E+00 -0.415848694775946E+00
  -0.158392605067166E-03  0.749119947560919E-03  0.103189830968237E-01 -0.168350419599914E-01 -0.167578612460219E-02 -0.161323867264967E-01  0.392828142583966E-02 -0.346785359043731E-01  0.373995415708866E-01 -0.207021478490847E-01  0.702658624273406E-01 -0.832610978997688E-01  0.590059750150271E-01  0.496455073768838E+00  0.513115168029637E+00  0.720271064335121E+00
   0.443978150553196E-04  0.276293626808268E-03  0.295673239889123E-01 -0.296697452095053E+00  0.697303923006842E+00  0.602205867192037E+00 -0.251365266626884E+00 -0.222878350361255E+00  0.531764601341513E+00 -0.956834339837140E+00 -0.781917750208731E+00 -0.118734481215628E+00  0.250124680332343E-01 -0.640775157967740E-01  0.157992475568767E+00 -0.631575702641464E-01
  -0.562592612279733E-03 -0.589768320265269E-04 -0.120335507889563E-02  0.334821463420763E-02  0.240632543354123E-01  0.522172197812956E-03 -0.116463758294314E+00 -0.201611915006436E+00 -0.737775568874485E+00  0.122767415657272E+01  0.139849854159631E+01  0.562682505192851E+00 -0.173039591037616E-01  0.980662978379969E-01 -0.428451744191251E+00  0.218796234898354E+00
   0.706337402484367E-04 -0.115377353883353E-03 -0.218540462099839E-02  0.995653650549170E-02 -0.129759342417560E-01 -0.908503794992243E-02 -0.150302324826167E-01  0.809075730056051E-02  0.132644520388834E-02  0.959230258254402E-02  0.615317865875399E-01  0.125154344039993E+00  0.702023481725238E+00 -0.835010708776369E-01  0.576831554225406E+00 -0.410902587783759E+00
   0.443978160294813E-04  0.276293628906019E-03  0.295673240152210E-01 -0.296697451848842E+00 -0.697303918551810E+00  0.602205872405264E+00 -0.251365266575106E+00 -0.222878350360140E+00  0.531764600492290E+00  0.956834340116273E+00 -0.781917750557868E+00 -0.118734480814429E+00 -0.250124683702244E-01  0.640775143158896E-01  0.157992476011555E+00 -0.631575707115624E-01
  -0.562592612587149E-03 -0.589768320769776E-04 -0.120335508378227E-02  0.334821460869434E-02 -0.240632543776836E-01  0.522172369989337E-03 -0.116463758422903E+00 -0.201611914971114E+00 -0.737775567760209E+00 -0.122767415692844E+01  0.139849854199220E+01  0.562682504709323E+00  0.173039597904103E-01 -0.980662938677776E-01 -0.428451745039398E+00  0.218796235396475E+00
   0.706337405268945E-04 -0.115377352284840E-03 -0.218540461815981E-02  0.995653649545465E-02  0.129759341869017E-01 -0.908503805881312E-02 -0.150302324743932E-01  0.809075728016122E-02  0.132644524317815E-02 -0.959230256730783E-02  0.615317866548281E-01  0.125154343879346E+00 -0.702023482689111E+00  0.835010631048548E-01  0.576831552875199E+00 -0.410902589651338E+00

 SYMMETRY BLOCK 3.1
   0.137382124223303E-03  0.999530435465044E+00 -0.161240283620931E-01 -0.119072014519649E-02 -0.287739659038982E-10 -0.665775868607189E-02  0.796154830047804E-01 -0.226247451267314E+00  0.125979182285202E+00  0.792182153545295E-10  0.188127995541970E+00 -0.487416816587146E-01  0.256916438355809E-09  0.321186096293613E-09 -0.843998898116072E-01  0.869532419988082E-01
   0.858419875794253E-03 -0.586594518333792E-02  0.265530046006071E+00 -0.625542135199110E+00 -0.107015776120544E-08 -0.246134900295543E+00  0.138191292033812E+01 -0.174718506925107E+01  0.735778869473328E+00  0.391797641130146E-09  0.959095782926132E+00 -0.429788349093526E+00  0.184005403159126E-08  0.136891485776176E-08 -0.453938959810377E+00  0.821366162958706E+00
   0.260109850042237E-02  0.257213467754634E-02 -0.155453966044865E+00  0.314082512690994E+00  0.107353550986379E-08  0.271398630645058E+00  0.366392035233292E+00  0.322561442596900E+01  0.180210584655898E+00  0.109542726977392E-09 -0.211351285175376E+01 -0.205708885976819E+01 -0.159396778114725E-08 -0.593339680147675E-08  0.134027701380022E+01  0.234284827387434E+00
   0.443978150554002E-04  0.276293626807339E-03  0.295673239889062E-01 -0.296697452095008E+00  0.697303923006855E+00  0.602205867192057E+00 -0.251365266626818E+00 -0.222878350361432E+00  0.531764601341269E+00 -0.956834339837188E+00 -0.781917750208782E+00 -0.118734481215670E+00  0.250124680332111E-01 -0.640775157967675E-01  0.157992475568782E+00  0.631575702642390E-01
  -0.562592612279274E-03 -0.589768320257631E-04 -0.120335507889952E-02  0.334821463419908E-02  0.240632543353984E-01  0.522172197821384E-03 -0.116463758294161E+00 -0.201611915006305E+00 -0.737775568874168E+00  0.122767415657275E+01  0.139849854159639E+01  0.562682505192958E+00 -0.173039591037052E-01  0.980662978379791E-01 -0.428451744191273E+00 -0.218796234898627E+00
   0.706337402481827E-04 -0.115377353882905E-03 -0.218540462099797E-02  0.995653650549075E-02 -0.129759342417564E-01 -0.908503794992342E-02 -0.150302324826201E-01  0.809075730054971E-02  0.132644520389044E-02  0.959230258253867E-02  0.615317865875520E-01  0.125154344040087E+00  0.702023481725176E+00 -0.835010708776599E-01  0.576831554225245E+00  0.410902587784057E+00
   0.100070068773050E+01 -0.446524696275986E-03 -0.102019764542195E-01  0.692293683510181E-02  0.343908697323918E-10  0.136016709427600E-01  0.182296911395099E-01  0.498176036300818E-01 -0.598514059467895E-01  0.101596555610120E-09 -0.148052886311563E-01 -0.893797601859598E+00  0.229207322756532E-09 -0.699334957258759E-09  0.144455176683976E+00  0.265945007116882E+00
   0.294667786327971E-02  0.327038138644559E-03  0.897307172236106E+00  0.347917813212345E+00  0.199119550874366E-09  0.541339181391929E-01 -0.337717670012181E+00 -0.119928418979955E-01 -0.424565347835727E+00  0.384815090667134E-09  0.186089461915890E-01 -0.382064008810944E+01  0.100323645002177E-08 -0.259279474456877E-08  0.558808376712122E+00  0.107597896042650E+01
  -0.504332997975967E-02  0.154138317748974E-02  0.375595556489550E-01  0.249709761171430E-01 -0.356076607477495E-09 -0.124586571171311E+00 -0.679721306717685E+00 -0.115278554554734E+01  0.158721231174517E-01 -0.694509930008981E-09  0.686570688633097E+00  0.566610075795930E+01 -0.105535389851956E-08  0.578844133233686E-08 -0.119446549251397E+01 -0.173137869269401E+01
  -0.159669747684901E-02 -0.189979921754850E-02 -0.113773652920402E+00  0.620861210600220E+00  0.186214746065550E-08  0.478933548823798E+00  0.567660206359180E+00 -0.423814306262319E+00 -0.105228442291208E+01 -0.656409113219289E-09 -0.756756073713740E+00  0.246731558259953E+00 -0.535426709009321E-09 -0.970651405594913E-09  0.172985770103633E+00 -0.128355857108281E+00
   0.225754033580153E-02 -0.373202418789738E-03 -0.727667160531110E-02 -0.963253908224436E-02  0.161769346138429E-09  0.470506435142432E-01  0.342641172130655E+00  0.426729246432177E+00  0.158982954647065E+01  0.984572698230665E-09  0.101307753463586E+01 -0.100924856140151E+01  0.106297185674894E-08  0.449439543270071E-09 -0.119989943561300E+00  0.529179339834487E+00
   0.914480145113065E-04 -0.432504605700400E-03 -0.595766775347286E-02  0.971971609805556E-02 -0.290254642263744E-02  0.931403796074950E-02 -0.226799442996509E-02  0.200216620296801E-01 -0.215926355621763E-01 -0.358571721377056E-01 -0.405680144149845E-01  0.480708180125274E-01  0.102201350382157E+00  0.859885414652999E+00 -0.296247174074390E+00  0.415848694775768E+00
   0.158392605066087E-03 -0.749119947560529E-03 -0.103189830968226E-01  0.168350419599907E-01  0.167578612460153E-02  0.161323867264952E-01 -0.392828142584831E-02  0.346785359043674E-01 -0.373995415708850E-01  0.207021478491028E-01 -0.702658624273671E-01  0.832610978997863E-01 -0.590059750150834E-01 -0.496455073768859E+00 -0.513115168029949E+00  0.720271064334875E+00
   0.443978160309148E-04  0.276293628905595E-03  0.295673240152203E-01 -0.296697451848827E+00 -0.697303918551814E+00  0.602205872405284E+00 -0.251365266575036E+00 -0.222878350360273E+00  0.531764600492629E+00  0.956834340116213E+00 -0.781917750557672E+00 -0.118734480814466E+00 -0.250124683702280E-01  0.640775143159066E-01  0.157992476011540E+00  0.631575707116474E-01
  -0.562592612588467E-03 -0.589768320767155E-04 -0.120335508379080E-02  0.334821460869593E-02 -0.240632543776761E-01  0.522172369999653E-03 -0.116463758422757E+00 -0.201611914971027E+00 -0.737775567760637E+00 -0.122767415692840E+01  0.139849854199195E+01  0.562682504709423E+00  0.173039597904357E-01 -0.980662938678050E-01 -0.428451745039379E+00 -0.218796235396738E+00
   0.706337405264075E-04 -0.115377352284847E-03 -0.218540461815960E-02  0.995653649545422E-02  0.129759341869020E-01 -0.908503805881405E-02 -0.150302324743987E-01  0.809075728015204E-02  0.132644524317321E-02 -0.959230256731300E-02  0.615317866548355E-01  0.125154343879448E+00 -0.702023482689147E+00  0.835010631050501E-01  0.576831552874919E+00  0.410902589651597E+00

 SYMMETRY BLOCK 4.1
   0.127911521742402E+00  0.544592240206620E-14  0.101249522232044E+01 -0.511261614813146E+00 -0.261810589332917E-13 -0.163621060776689E-13  0.129883684433345E-01  0.384561440903358E+00
   0.633839267487166E+00  0.727845144112783E+00 -0.404311248987064E+00 -0.880154995744085E+00 -0.967947682969415E+00  0.106287200873342E+00  0.150981338634829E-01  0.222816059665302E-01
   0.891446034663639E-02  0.167437445009591E-01  0.766633157490018E-01  0.114200837474994E+01  0.137936743228630E+01 -0.153368864008432E+00 -0.219377600556094E-01 -0.110929014348873E+00
  -0.136442660975835E-01 -0.115013033593224E-01 -0.438968209641137E-01  0.232025419957422E-01  0.443047901396866E-01  0.706639140908341E+00  0.111299403483591E+00  0.720400816588493E+00
   0.633839267487256E+00 -0.727845144112725E+00 -0.404311248987039E+00 -0.880154995744130E+00  0.967947682969370E+00 -0.106287200873345E+00  0.150981338634684E-01  0.222816059665193E-01
   0.891446034662785E-02 -0.167437445009413E-01  0.766633157489703E-01  0.114200837475002E+01 -0.137936743228624E+01  0.153368864008444E+00 -0.219377600555886E-01 -0.110929014348858E+00
  -0.136442660975847E-01  0.115013033593208E-01 -0.438968209641162E-01  0.232025419957448E-01 -0.443047901396822E-01 -0.706639140908410E+00  0.111299403483495E+00  0.720400816588440E+00
   0.214335535548142E-02  0.163904559422371E-15  0.149734099757460E-01  0.340836861532680E-02 -0.286951931985846E-15 -0.610859626470906E-13  0.987581309477285E+00 -0.159501752041116E+00

 SYMMETRY BLOCK 5.1
   0.137382123408595E-03  0.999530435470494E+00 -0.161240283540558E-01 -0.119072014004195E-02  0.470495863694610E-14 -0.665775870016061E-02  0.796154830298513E-01 -0.226247451255483E+00  0.125979182261405E+00 -0.216230920072308E-13  0.188127995462318E+00 -0.487416818768739E-01  0.182560278761188E-14  0.514590501984165E-15 -0.843998893452626E-01 -0.869532424816435E-01
   0.858419866264168E-03 -0.586594514707939E-02  0.265530046051168E+00 -0.625542135018311E+00  0.193147454436228E-12 -0.246134900529394E+00  0.138191292059913E+01 -0.174718506902576E+01  0.735778869389242E+00 -0.993912621294427E-13  0.959095782337949E+00 -0.429788350851802E+00  0.460774825229026E-14  0.213921567869271E-14 -0.453938955226943E+00 -0.821366165427331E+00
   0.260109850815832E-02  0.257213462164875E-02 -0.155453966175846E+00  0.314082512848999E+00 -0.184505584650547E-12  0.271398630659904E+00  0.366392034845776E+00  0.322561442605336E+01  0.180210584713527E+00  0.124844442011242E-12 -0.211351284995227E+01 -0.205708885891561E+01 -0.660702601946380E-13 -0.117205416243686E-13  0.134027701995309E+01 -0.234284815010516E+00
   0.443978173651373E-04  0.276293623402783E-03  0.295673240025421E-01 -0.296697452118044E+00  0.697303920815587E+00  0.602205869753088E+00 -0.251365266676769E+00 -0.222878350275313E+00  0.531764600828516E+00 -0.956834339961327E+00 -0.781917750346588E+00 -0.118734481321968E+00  0.250124677622538E-01  0.640775150580347E-01  0.157992476369411E+00 -0.631575694130851E-01
  -0.562592615019363E-03 -0.589768178984386E-04 -0.120335504433514E-02  0.334821454918896E-02  0.240632543102567E-01  0.522172271647436E-03 -0.116463758207038E+00 -0.201611915092012E+00 -0.737775568256365E+00  0.122767415677111E+01  0.139849854145236E+01  0.562682505371910E+00 -0.173039587889065E-01 -0.980662957225483E-01 -0.428451747238293E+00  0.218796231307024E+00
   0.706337400165017E-04 -0.115377352948135E-03 -0.218540462206468E-02  0.995653650298963E-02 -0.129759342054822E-01 -0.908503798950983E-02 -0.150302324865660E-01  0.809075728633573E-02  0.132644522773368E-02  0.959230256974516E-02  0.615317865647256E-01  0.125154344315260E+00  0.702023481628107E+00  0.835010718614039E-01  0.576831555484013E+00 -0.410902585903197E+00
   0.443978173650220E-04  0.276293623403225E-03  0.295673240025416E-01 -0.296697452118082E+00 -0.697303920816403E+00  0.602205869752103E+00 -0.251365266676780E+00 -0.222878350275279E+00  0.531764600828672E+00  0.956834339961388E+00 -0.781917750346433E+00 -0.118734481321963E+00 -0.250124677622698E-01 -0.640775150580369E-01  0.157992476369400E+00 -0.631575694130876E-01
  -0.562592615019221E-03 -0.589768178986281E-04 -0.120335504433413E-02  0.334821454918491E-02 -0.240632543102787E-01  0.522172271623701E-03 -0.116463758207019E+00 -0.201611915092056E+00 -0.737775568256556E+00 -0.122767415677123E+01  0.139849854145215E+01  0.562682505371901E+00  0.173039587889532E-01  0.980662957225553E-01 -0.428451747238278E+00  0.218796231307027E+00
   0.706337400161182E-04 -0.115377352948383E-03 -0.218540462206463E-02  0.995653650299029E-02  0.129759342054944E-01 -0.908503798949151E-02 -0.150302324865669E-01  0.809075728633515E-02  0.132644522773150E-02 -0.959230256975327E-02  0.615317865647249E-01  0.125154344315265E+00 -0.702023481628163E+00 -0.835010718614169E-01  0.576831555483956E+00 -0.410902585903178E+00
   0.100070068772816E+01 -0.446524701145752E-03 -0.102019764852885E-01  0.692293687165345E-02 -0.843331736891909E-14  0.136016709005128E-01  0.182296911271260E-01  0.498176037409575E-01 -0.598514061094457E-01  0.885897183901425E-14 -0.148052882904433E-01 -0.893797602003153E+00 -0.129915162786325E-13 -0.184018561937511E-14  0.144455179489614E+00 -0.265945005081714E+00
   0.294667785273829E-02  0.327038112440730E-03  0.897307172083892E+00  0.347917813386732E+00 -0.443634519394770E-13  0.541339180534431E-01 -0.337717670083249E+00 -0.119928414133669E-01 -0.424565348610195E+00  0.445901414704676E-13  0.186089476033572E-01 -0.382064008864573E+01 -0.507550160996698E-13 -0.700725490494847E-14  0.558808388198155E+00 -0.107597895228486E+01
  -0.504332996807822E-02  0.154138321489129E-02  0.375595558517485E-01  0.249709758120083E-01  0.727290715105783E-13 -0.124586570879825E+00 -0.679721306557197E+00 -0.115278554623860E+01  0.158721239375733E-01 -0.685603769945880E-13  0.686570686254507E+00  0.566610075885295E+01  0.933559434029198E-13  0.137570327878785E-13 -0.119446551116504E+01  0.173137867746151E+01
  -0.159669748266156E-02 -0.189979922516560E-02 -0.113773652984214E+00  0.620861210466794E+00 -0.354672284822736E-12  0.478933549033038E+00  0.567660206339041E+00 -0.423814306071120E+00 -0.105228442292420E+01  0.158999307624455E-12 -0.756756073822270E+00  0.246731558560794E+00 -0.451691662025808E-14 -0.120726826285749E-14  0.172985769058194E+00  0.128355857727909E+00
   0.225754033785542E-02 -0.373202404309013E-03 -0.727667161925171E-02 -0.963253896520722E-02 -0.272251372679640E-13  0.470506434050330E-01  0.342641172087884E+00  0.426729246287078E+00  0.158982954642658E+01 -0.212157016619534E-12  0.101307753494871E+01 -0.100924856222527E+01 -0.665971795975615E-14 -0.360385583599173E-15 -0.119989939098846E+00 -0.529179338965073E+00
  -0.182896019209492E-03  0.865009164789993E-03  0.119153353936130E-01 -0.194394320944004E-01  0.135173800601412E-13 -0.186280754316348E-01  0.453598834363662E-02 -0.400433246661340E-01  0.431852706590244E-01 -0.542956059220793E-14  0.811360296460875E-01 -0.961416328026520E-01 -0.119384098712150E-13 -0.540240944074063E-14  0.592494353395320E+00  0.831697389903004E+00
   0.144411855571026E-16 -0.639687113838592E-18  0.136689615167357E-16  0.134886155757002E-15  0.335157196392110E-02  0.227181863945328E-14 -0.105100754882835E-15  0.459332527574094E-15  0.324402253201162E-14  0.414042956999033E-01  0.451274805104427E-14  0.557579154181015E-15 -0.118011960126174E+00  0.992910149507757E+00  0.552768201836283E-14  0.537956518239896E-15

 SYMMETRY BLOCK 6.1
   0.127911521751054E+00 -0.970058042829357E-10  0.101249522232434E+01 -0.511261614804238E+00  0.529382423776722E-10  0.802799022186569E-10  0.129883684104322E-01  0.384561440903164E+00
   0.633839267801233E+00  0.727845143868198E+00 -0.404311248979016E+00 -0.880154995890909E+00 -0.967947682817295E+00  0.106287200888646E+00  0.150981337883496E-01  0.222816059544777E-01
   0.891446032777435E-02  0.167437444964406E-01  0.766633157774161E-01  0.114200837495278E+01  0.137936743211470E+01 -0.153368864055082E+00 -0.219377599442233E-01 -0.110929014334604E+00
  -0.136442660974718E-01 -0.115013033506057E-01 -0.438968209666588E-01  0.232025419911684E-01  0.443047901587299E-01  0.706639141129657E+00  0.111299402885040E+00  0.720400816462842E+00
   0.214335535720304E-02  0.264862998298451E-11  0.149734099729931E-01  0.340836863138199E-02 -0.592686299550682E-11  0.691367406504112E-09  0.987581309495284E+00 -0.159501751929568E+00
   0.633839267158665E+00 -0.727845144350690E+00 -0.404311248991564E+00 -0.880154995608997E+00  0.967947683121669E+00 -0.106287200901744E+00  0.150981339575832E-01  0.222816059810062E-01
   0.891446037502072E-02 -0.167437445149070E-01  0.766633156983585E-01  0.114200837454823E+01 -0.137936743245160E+01  0.153368864016855E+00 -0.219377601778142E-01 -0.110929014364830E+00
  -0.136442660990975E-01  0.115013033726070E-01 -0.438968209608970E-01  0.232025420009670E-01 -0.443047901489746E-01 -0.706639140685245E+00  0.111299403918371E+00  0.720400816739372E+00

 SYMMETRY BLOCK 7.1
   0.127911521751057E+00 -0.970105127822773E-10  0.101249522232433E+01 -0.511261614804251E+00  0.529178301949303E-10  0.802901023169515E-10  0.129883684104371E-01  0.384561440903163E+00
   0.214335535720328E-02  0.264845662343484E-11  0.149734099729927E-01  0.340836863138182E-02 -0.592737219759077E-11  0.691487184792786E-09  0.987581309495282E+00 -0.159501751929580E+00
   0.633839267801246E+00  0.727845143868191E+00 -0.404311248979042E+00 -0.880154995890896E+00 -0.967947682817291E+00  0.106287200888645E+00  0.150981337883362E-01  0.222816059544759E-01
   0.891446032777473E-02  0.167437444964326E-01  0.766633157774535E-01  0.114200837495277E+01  0.137936743211470E+01 -0.153368864055084E+00 -0.219377599442053E-01 -0.110929014334603E+00
  -0.136442660974717E-01 -0.115013033506052E-01 -0.438968209666589E-01  0.232025419911673E-01  0.443047901587306E-01  0.706639141129682E+00  0.111299402884961E+00  0.720400816462829E+00
   0.633839267158654E+00 -0.727845144350708E+00 -0.404311248991560E+00 -0.880154995608998E+00  0.967947683121665E+00 -0.106287200901739E+00  0.150981339575958E-01  0.222816059810034E-01
   0.891446037501523E-02 -0.167437445148986E-01  0.766633156983472E-01  0.114200837454824E+01 -0.137936743245159E+01  0.153368864016846E+00 -0.219377601778340E-01 -0.110929014364827E+00
  -0.136442660990974E-01  0.115013033726076E-01 -0.438968209608963E-01  0.232025420009656E-01 -0.443047901489695E-01 -0.706639140685218E+00  0.111299403918468E+00  0.720400816739383E+00

 SYMMETRY BLOCK 8.1
   0.577339776900878E+00 -0.707081946008923E+00 -0.408306140412384E+00
   0.577339776907994E+00  0.707144478908714E+00 -0.408197830237898E+00
   0.577339738220044E+00 -0.625329126967185E-04  0.816504025356779E+00


 **********************************************************************************************************************************
 DATASETS  * FILE   NREC   LENGTH (MB)   RECORD NAMES
              1      19       15.59       500      610      700      900      950      970     1000      129      960     1100   
                                          VAR    BASINP    GEOM    SYMINP    ZMAT    AOBASIS   BASIS     P2S    ABASIS      S 
                                         1400     1410     1200     1210     1080     1600     1650     1300     1700   
                                           T        V       H0       H01     AOSYM     SMH    MOLCAS    ERIS     OPER   

              2       4        0.52       700     1000      520     2100   
                                         GEOM     BASIS   MCVARS     RHF  

 PROGRAMS   *        TOTAL    MATROP        HF       INT
 CPU TIMES  *         1.24      0.01      0.06      1.06
 REAL TIME  *         1.32 SEC
 DISK USED  *        43.20 MB      
 **********************************************************************************************************************************


 PROGRAM * MATROP


 Density D read from record              2100.2  Type=RHF/CHARGE (state 1.1)

 MATRIX D               

 SYMMETRY BLOCK 1.1
   0.200069192661209E+01  0.468455231324679E-02  0.413497971472978E-01 -0.224041776343863E-01 -0.793048589317301E-12 -0.451835712501806E-14 -0.613762104264035E-03 -0.465443374811524E-02 -0.277081832651551E-03 -0.123711996041955E-01  0.398745943621842E-03 -0.264893655134632E-03  0.458809246124775E-03 -0.613762104263340E-03 -0.465443374811859E-02 -0.277081832652257E-03 -0.123711996042171E-01  0.398745943622393E-03 -0.264893655134831E-03 -0.458809246125135E-03 -0.613762109481737E-03 -0.465443381690605E-02 -0.277081801100473E-03 -0.123711997358814E-01  0.398745922750169E-03  0.529787288408192E-03 -0.361172067096572E-16
   0.468455231324679E-02  0.203205631038147E+01  0.281005426746109E+00 -0.148554599910657E+00 -0.823931469969652E-10 -0.235559759009094E-13 -0.408915264236832E-02 -0.458393089517744E-01 -0.296007103526925E-02 -0.882470028777821E-01  0.469794490048018E-02 -0.170268456140001E-02  0.294913603322781E-02 -0.408915264237652E-02 -0.458393089518592E-01 -0.296007103520178E-02 -0.882470028779219E-01  0.469794490046039E-02 -0.170268456139865E-02 -0.294913603322966E-02 -0.408915269543665E-02 -0.458393094861277E-01 -0.296007070745226E-02 -0.882470037384560E-01  0.469794470518997E-02  0.340536897442574E-02 -0.224077711380313E-14
   0.413497971472978E-01  0.281005426746109E+00  0.248627224758380E+01 -0.137462912537162E+01 -0.543192925502051E-09 -0.471767495124964E-13 -0.215111574894390E-01 -0.160583033178533E+00  0.239624133520734E-02 -0.732882308060137E+00  0.109614849345197E-01 -0.192336406922217E-01  0.333136425504503E-01 -0.215111574894469E-01 -0.160583033178700E+00  0.239624133531003E-02 -0.732882308060437E+00  0.109614849344809E-01 -0.192336406922253E-01 -0.333136425504590E-01 -0.215111576032769E-01 -0.160583034224081E+00  0.239624205716702E-02 -0.732882308737287E+00  0.109614844667414E-01  0.384672808508445E-01 -0.412986315814263E-15
  -0.224041776343863E-01 -0.148554599910657E+00 -0.137462912537162E+01  0.760504013723312E+00 -0.787935368652047E-09  0.134343643948885E-12  0.228116355465393E-01  0.755429623038910E-01 -0.192584733482345E-02  0.403394590439705E+00 -0.592095900407617E-02  0.106501309421567E-01 -0.184465677247667E-01  0.228116355465225E-01  0.755429623039678E-01 -0.192584733481562E-02  0.403394590440375E+00 -0.592095900408510E-02  0.106501309421621E-01  0.184465677247784E-01  0.228116355258152E-01  0.755429637037951E-01 -0.192584714184437E-02  0.403394595437306E+00 -0.592095901659535E-02 -0.213002616694702E-01  0.744056949980262E-15
  -0.793048589317301E-12 -0.823931469969652E-10 -0.543192925502051E-09 -0.787935368652047E-09  0.166046808522836E+00 -0.122014215137717E-13 -0.163742245386971E-02 -0.628578131643758E-01  0.277871173960330E-01  0.207091300454863E+00 -0.134747588196995E-01  0.226810822953432E-02 -0.247174547787723E-02 -0.163742245386256E-02 -0.628578131643695E-01  0.277871173960131E-01  0.207091300454822E+00 -0.134747588196774E-01  0.226810822953471E-02  0.247174547787756E-02  0.327484438347745E-02  0.125715626783753E+00 -0.555742331849551E-01 -0.414182600547983E+00  0.269495170119280E-01  0.654929679391817E-02 -0.154631846691463E-15
  -0.451835712501806E-14 -0.235559759009094E-13 -0.471767495124964E-13  0.134343643948885E-12 -0.122014215137717E-13  0.166046808755306E+00  0.283609852216264E-02  0.108872926792578E+00 -0.481286984274324E-01 -0.358692654200107E+00  0.233389666718902E-01 -0.247174548136864E-02  0.512223386189667E-02 -0.283609852215191E-02 -0.108872926792510E+00  0.481286984273265E-01  0.358692654200067E+00 -0.233389666718332E-01  0.247174548136865E-02  0.512223386189692E-02  0.168087250932217E-14  0.559551997835264E-14 -0.294652336926306E-13  0.529448446889846E-14  0.111120558284397E-13 -0.145056086283193E-15  0.841045368457515E-03
  -0.613762104264035E-03 -0.408915264236832E-02 -0.215111574894390E-01  0.228116355465393E-01 -0.163742245386971E-02  0.283609852216264E-02  0.200253376354637E+01 -0.930761540477422E-03 -0.927967878113339E-02 -0.587101106770631E-02  0.530149917590514E-02  0.334938076841188E-03 -0.580129778566041E-03  0.110826235506209E-02 -0.170990559070781E-04 -0.403269719202362E-02  0.800931856890518E-02  0.762008153138546E-03  0.122445426544946E-03  0.313356801136332E-03  0.110826228915346E-02 -0.170991581805615E-04 -0.403269687467124E-02  0.800931874451285E-02  0.762007991351319E-03 -0.332597600642636E-03  0.506375119382595E-04
  -0.465443374811524E-02 -0.458393089517744E-01 -0.160583033178533E+00  0.755429623038910E-01 -0.628578131643758E-01  0.108872926792578E+00 -0.930761540477422E-03  0.190681224144997E+01  0.255045190222094E-02  0.156213347420573E+00  0.157350946332214E-01 -0.803450901033833E-03  0.139161785452883E-02 -0.170990559180292E-04 -0.368379687326943E-01  0.326052260969348E-01  0.112454300738432E+00 -0.151117315804233E-01  0.567108859195599E-03  0.273266552207089E-02 -0.170990408340659E-04 -0.368379683166431E-01  0.326052254137023E-01  0.112454301258407E+00 -0.151117310961140E-01 -0.265011241338747E-02  0.875202340371760E-03
  -0.277081832651551E-03 -0.296007103526925E-02  0.239624133520734E-02 -0.192584733482345E-02  0.277871173960330E-01 -0.481286984274324E-01 -0.927967878113339E-02  0.255045190222094E-02  0.199231826053064E-01  0.147251702196728E+00 -0.919038136179361E-02  0.107191965274947E-02 -0.185661922803199E-02 -0.403269719200407E-02  0.326052260969386E-01 -0.859009051568256E-02 -0.701210548478355E-01  0.434137726345690E-02 -0.394763607285723E-03 -0.115954912715518E-02 -0.403269704250642E-02  0.326052255901714E-01 -0.859009069881590E-02 -0.701210566281714E-01  0.434137734101345E-02  0.120158084625118E-02 -0.237899290558846E-03
  -0.123711996041955E-01 -0.882470028777821E-01 -0.732882308060137E+00  0.403394590439705E+00  0.207091300454863E+00 -0.358692654200107E+00 -0.587101106770631E-02  0.156213347420573E+00  0.147251702196728E+00  0.135760026493660E+01 -0.709671283195634E-01  0.140566230288147E-01 -0.243467847036047E-01  0.800931856889009E-02  0.112454300738387E+00 -0.701210548476639E-01 -0.338867273214131E+00  0.297977801803595E-01  0.284370505286792E-02  0.147664891948644E-02  0.800931853298567E-02  0.112454300512524E+00 -0.701210546819061E-01 -0.338867272575780E+00  0.297977800995121E-01 -0.270066784242513E-02 -0.172439662993433E-02
   0.398745943621842E-03  0.469794490048018E-02  0.109614849345197E-01 -0.592095900407617E-02 -0.134747588196995E-01  0.233389666718902E-01  0.530149917590514E-02  0.157350946332214E-01 -0.919038136179361E-02 -0.709671283195634E-01  0.446893217732749E-02 -0.610574922498148E-03  0.105754675378024E-02  0.762008153131097E-03 -0.151117315804251E-01  0.434137726345744E-02  0.297977801804434E-01 -0.209898927554573E-02  0.834502204434401E-04  0.381194370604524E-03  0.762008090628599E-03 -0.151117312703498E-01  0.434137731765293E-02  0.297977807982690E-01 -0.209898929559120E-02 -0.371849138118462E-03  0.118327194537751E-03
  -0.264893655134632E-03 -0.170268456140001E-02 -0.192336406922217E-01  0.106501309421567E-01  0.226810822953432E-02 -0.247174548136864E-02  0.334938076841188E-03 -0.803450901033833E-03  0.107191965274947E-02  0.140566230288147E-01 -0.610574922498148E-03  0.218371787617651E-03 -0.370648513946389E-03  0.122445426545863E-03  0.567108859196294E-03 -0.394763607285435E-03  0.284370505286779E-02  0.834502204432866E-04  0.142794929301870E-03  0.215390052489137E-03  0.210152153949979E-03  0.208300386815995E-02 -0.806817232962310E-03 -0.143037247437554E-03  0.288398919039461E-03 -0.209179093634504E-03 -0.121777553686226E-04
   0.458809246124775E-03  0.294913603322781E-02  0.333136425504503E-01 -0.184465677247667E-01 -0.247174547787723E-02  0.512223386189667E-02 -0.580129778566041E-03  0.139161785452883E-02 -0.185661922803199E-02 -0.243467847036047E-01  0.105754675378024E-02 -0.370648513946389E-03  0.646359811597047E-03 -0.313356801138069E-03 -0.273266552207226E-02  0.115954912715390E-02 -0.147664891948663E-02 -0.381194370603783E-03 -0.215390052489121E-03 -0.326503773363074E-03 -0.262719215899274E-03 -0.185746361089183E-02  0.921649907804865E-03 -0.320104509544625E-02 -0.262867213608223E-03  0.418602341609124E-03  0.254702554140545E-04
  -0.613762104263340E-03 -0.408915264237652E-02 -0.215111574894469E-01  0.228116355465225E-01 -0.163742245386256E-02 -0.283609852215191E-02  0.110826235506209E-02 -0.170990559180292E-04 -0.403269719200407E-02  0.800931856889009E-02  0.762008153131097E-03  0.122445426545863E-03 -0.313356801138069E-03  0.200253376354637E+01 -0.930761540491023E-03 -0.927967878112718E-02 -0.587101106766859E-02  0.530149917589905E-02  0.334938076842541E-03  0.580129778567441E-03  0.110826228915570E-02 -0.170991581734620E-04 -0.403269687467562E-02  0.800931874451242E-02  0.762007991355710E-03 -0.332597600646146E-03 -0.506375119395882E-04
  -0.465443374811859E-02 -0.458393089518592E-01 -0.160583033178700E+00  0.755429623039678E-01 -0.628578131643695E-01 -0.108872926792510E+00 -0.170990559070781E-04 -0.368379687326943E-01  0.326052260969386E-01  0.112454300738387E+00 -0.151117315804251E-01  0.567108859196294E-03 -0.273266552207226E-02 -0.930761540491023E-03  0.190681224144983E+01  0.255045190232767E-02  0.156213347420694E+00  0.157350946331980E-01 -0.803450901033305E-03 -0.139161785452810E-02 -0.170990408301463E-04 -0.368379683166376E-01  0.326052254137099E-01  0.112454301258415E+00 -0.151117310961223E-01 -0.265011241338808E-02 -0.875202340371887E-03
  -0.277081832652257E-03 -0.296007103520178E-02  0.239624133531003E-02 -0.192584733481562E-02  0.277871173960131E-01  0.481286984273265E-01 -0.403269719202362E-02  0.326052260969348E-01 -0.859009051568256E-02 -0.701210548476639E-01  0.434137726345744E-02 -0.394763607285435E-03  0.115954912715390E-02 -0.927967878112718E-02  0.255045190232767E-02  0.199231826052428E-01  0.147251702196435E+00 -0.919038136175713E-02  0.107191965274676E-02  0.185661922802691E-02 -0.403269704251154E-02  0.326052255901654E-01 -0.859009069882851E-02 -0.701210566281778E-01  0.434137734101844E-02  0.120158084625272E-02  0.237899290558279E-03
  -0.123711996042171E-01 -0.882470028779219E-01 -0.732882308060437E+00  0.403394590440375E+00  0.207091300454822E+00  0.358692654200067E+00  0.800931856890518E-02  0.112454300738432E+00 -0.701210548478355E-01 -0.338867273214131E+00  0.297977801804434E-01  0.284370505286779E-02 -0.147664891948663E-02 -0.587101106766859E-02  0.156213347420694E+00  0.147251702196435E+00  0.135760026493647E+01 -0.709671283193890E-01  0.140566230288161E-01  0.243467847036076E-01  0.800931853299797E-02  0.112454300512560E+00 -0.701210546820479E-01 -0.338867272575776E+00  0.297977800995644E-01 -0.270066784242602E-02  0.172439662993388E-02
[...]
  -0.941735622750682E-04 -0.508527614852291E-02  0.275756755007952E-02 -0.104080397113358E-02  0.223429071183886E-03 -0.477970246980354E-04  0.493356571435796E-02 -0.349823959040211E-06 -0.505884718245938E-04 -0.234977112698818E-03  0.321296575925363E-01  0.118458293282328E-02 -0.562107309156554E-03 -0.349879487796077E-01 -0.113157790603296E-02  0.686865511611074E-03
  -0.628908095211314E-04 -0.914328267975224E-02  0.200224781083126E-02  0.767739478963076E-04  0.202287773265402E-02  0.259576254120183E-02  0.415849139479561E-02 -0.101451724326037E-02  0.125791693035441E-03 -0.439184926804479E-04 -0.350759146599028E-01 -0.562107309156554E-03  0.709679395199254E-03  0.111676454036468E-02  0.686865511921125E-03  0.361799206032701E-04
  -0.771326421026871E-02  0.904446124334122E-01  0.131309671134047E+00  0.117592975673656E-01 -0.881907445694262E-01 -0.162649704009688E+00  0.201688153811300E+00  0.619539378435424E-01  0.914568524009653E-02 -0.649253415691391E-02 -0.693543306992964E-01 -0.349879487796077E-01  0.111676454036468E-02  0.187557670095889E+01  0.321296576663332E-01 -0.350759146827479E-01
  -0.941735616808226E-04 -0.508527610095018E-02  0.275756752569799E-02 -0.104080397062872E-02  0.223429044134538E-03 -0.477970349658002E-04  0.493356566947406E-02 -0.349822766045479E-06  0.228790382343371E-03 -0.736776464419389E-04 -0.349879488377714E-01 -0.113157790603296E-02  0.686865511921125E-03  0.321296576663332E-01  0.118458293693417E-02 -0.562107311417068E-03
  -0.628908064366415E-04 -0.914328266764734E-02  0.200224780026746E-02  0.767739470780742E-04  0.202287772931247E-02  0.259576254956747E-02  0.415849137402984E-02 -0.101451724495884E-02 -0.248613149599398E-04 -0.130898050808769E-03  0.111676454439352E-02  0.686865511611074E-03  0.361799206032701E-04 -0.350759146827479E-01 -0.562107311417068E-03  0.709679395884004E-03

 SYMMETRY BLOCK 3.1
   0.199873367630119E+01 -0.155218688246414E-01  0.579387486117392E-02 -0.771326422386166E-02 -0.941735622736252E-04 -0.628908095203879E-04 -0.486279206885968E-03 -0.298312004268281E-01  0.346817815350695E-02 -0.798506567184321E-02 -0.111433988668918E-02 -0.819622857081111E-03 -0.141962842495531E-02 -0.771326421026149E-02 -0.941735616801527E-04 -0.628908064368707E-04
  -0.155218688246414E-01  0.104485340716504E+01 -0.609126148867369E+00  0.904446123089233E-01 -0.508527614851916E-02 -0.914328267975262E-02 -0.190514504776174E-01  0.146022550600600E-01  0.500090502612093E-01 -0.107291531688423E+01 -0.149665884580543E-01 -0.199038520135706E-01 -0.344744825731885E-01  0.904446124334694E-01 -0.508527610096231E-02 -0.914328266764861E-02
   0.579387486117392E-02 -0.609126148867369E+00  0.392968717287176E+00  0.131309671152018E+00  0.275756755008119E-02  0.200224781083248E-02  0.201071170051922E-01 -0.310293613219581E-01 -0.636352266617518E-01  0.685322168498949E+00  0.217603355214791E-01  0.130117569715635E-01  0.225370239075646E-01  0.131309671133897E+00  0.275756752570673E-02  0.200224780027004E-02
  -0.771326422386166E-02  0.904446123089233E-01  0.131309671152018E+00  0.187557670111631E+01  0.321296575925329E-01 -0.350759146599037E-01  0.117592975166401E-01 -0.881907447970390E-01 -0.162649703718021E+00  0.201688153711972E+00  0.619539378092849E-01  0.104985713551822E-02  0.111666629212571E-01 -0.693543306993059E-01 -0.349879488377503E-01  0.111676454439400E-02
  -0.941735622736252E-04 -0.508527614851916E-02  0.275756755008119E-02  0.321296575925329E-01  0.118458293282186E-02 -0.562107309156525E-03 -0.104080397113252E-02  0.223429071171412E-03 -0.477970247009753E-04  0.493356571435566E-02 -0.349823957940410E-06 -0.505884718245051E-04  0.234977112698795E-03 -0.349879487795733E-01 -0.113157790603193E-02  0.686865511610418E-03
  -0.628908095203879E-04 -0.914328267975262E-02  0.200224781083248E-02 -0.350759146599037E-01 -0.562107309156525E-03  0.709679395199269E-03  0.767739478957934E-04  0.202287773265433E-02  0.259576254120144E-02  0.415849139479465E-02 -0.101451724326061E-02  0.125791693035419E-03  0.439184926803978E-04  0.111676454036462E-02  0.686865511920824E-03  0.361799206032566E-04
  -0.486279206885968E-03 -0.190514504776174E-01  0.201071170051922E-01  0.117592975166401E-01 -0.104080397113252E-02  0.767739478957934E-04  0.200347815727807E+01 -0.612157064721786E-02 -0.139048936036064E-01  0.207524553023849E-01  0.581361430838585E-02  0.692921322272749E-03  0.120017491980293E-02  0.117592975673559E-01 -0.104080397063101E-02  0.767739470771528E-04
  -0.298312004268281E-01  0.146022550600600E-01 -0.310293613219581E-01 -0.881907447970390E-01  0.223429071171412E-03  0.202287773265433E-02 -0.612157064721786E-02  0.185829247410858E+01  0.712631797030176E-01  0.279679966379301E+00 -0.146543513550488E-01 -0.291972448967452E-02 -0.505711102987729E-02 -0.881907445694699E-01  0.223429044121097E-03  0.202287772931272E-02
   0.346817815350695E-02  0.500090502612093E-01 -0.636352266617518E-01 -0.162649703718021E+00 -0.477970247009753E-04  0.259576254120144E-02 -0.139048936036064E-01  0.712631797030176E-01  0.351677892487970E-01 -0.968666833989112E-01 -0.127753631421969E-01 -0.228517693013372E-02 -0.395804248774162E-02 -0.162649704009575E+00 -0.477970349678722E-04  0.259576254956644E-02
  -0.798506567184321E-02 -0.107291531688423E+01  0.685322168498949E+00  0.201688153711972E+00  0.493356571435566E-02  0.415849139479465E-02  0.207524553023849E-01  0.279679966379301E+00 -0.968666833989112E-01  0.125559317959136E+01  0.347573194146146E-01  0.223478024652835E-01  0.387075288691819E-01  0.201688153811308E+00  0.493356566948859E-02  0.415849137402890E-02
  -0.111433988668918E-02 -0.149665884580543E-01  0.217603355214791E-01  0.619539378092849E-01 -0.349823957940410E-06 -0.101451724326061E-02  0.581361430838585E-02 -0.146543513550488E-01 -0.127753631421969E-01  0.347573194146146E-01  0.472946916468013E-02  0.776651570477835E-03  0.134519995982010E-02  0.619539378435238E-01 -0.349822765384610E-06 -0.101451724495882E-02
  -0.819622857081111E-03 -0.199038520135706E-01  0.130117569715635E-01  0.104985713551822E-02 -0.505884718245051E-04  0.125791693035419E-03  0.692921322272749E-03 -0.291972448967452E-02 -0.228517693013372E-02  0.223478024652835E-01  0.776651570477835E-03  0.450676375861458E-03  0.741681998116645E-03  0.914568524009749E-02  0.228790382343675E-03 -0.248613149599796E-04
  -0.141962842495531E-02 -0.344744825731885E-01  0.225370239075646E-01  0.111666629212571E-01  0.234977112698795E-03  0.439184926803978E-04  0.120017491980293E-02 -0.505711102987729E-02 -0.395804248774162E-02  0.387075288691819E-01  0.134519995982010E-02  0.741681998116645E-03  0.130709695897787E-02  0.649253415691469E-02  0.736776464425493E-04  0.130898050808711E-03
  -0.771326421026149E-02  0.904446124334694E-01  0.131309671133897E+00 -0.693543306993059E-01 -0.349879487795733E-01  0.111676454036462E-02  0.117592975673559E-01 -0.881907445694699E-01 -0.162649704009575E+00  0.201688153811308E+00  0.619539378435238E-01  0.914568524009749E-02  0.649253415691469E-02  0.187557670095893E+01  0.321296576663341E-01 -0.350759146827493E-01
  -0.941735616801527E-04 -0.508527610096231E-02  0.275756752570673E-02 -0.349879488377503E-01 -0.113157790603193E-02  0.686865511920824E-03 -0.104080397063101E-02  0.223429044121097E-03 -0.477970349678722E-04  0.493356566948859E-02 -0.349822765384610E-06  0.228790382343675E-03  0.736776464425493E-04  0.321296576663341E-01  0.118458293693354E-02 -0.562107311417014E-03
  -0.628908064368707E-04 -0.914328266764861E-02  0.200224780027004E-02  0.111676454439400E-02  0.686865511610418E-03  0.361799206032566E-04  0.767739470771528E-04  0.202287772931272E-02  0.259576254956644E-02  0.415849137402890E-02 -0.101451724495882E-02 -0.248613149599796E-04  0.130898050808711E-03 -0.350759146827493E-01 -0.562107311417014E-03  0.709679395884035E-03

 SYMMETRY BLOCK 4.1
   0.327227147889140E-01  0.162150690488753E+00  0.228052437690131E-02 -0.349051767920048E-02  0.162150690488761E+00  0.228052437689876E-02 -0.349051767920053E-02  0.548319690308711E-03
   0.162150690488753E+00  0.186302154163445E+01  0.356743762908872E-01 -0.340388788594864E-01 -0.256012673599583E+00 -0.130730362262505E-01 -0.554207655286808E-03  0.271708557696631E-02
   0.228052437690131E-02  0.356743762908872E-01  0.719641166370303E-03 -0.628412307924762E-03 -0.130730362262621E-01 -0.401770753282847E-03  0.141887231581231E-03  0.382137126503852E-04
  -0.349051767920048E-02 -0.340388788594864E-01 -0.628412307924762E-03  0.636891952609657E-03 -0.554207655286739E-03  0.141887231581129E-03  0.107772036757083E-03 -0.584890216237423E-04
   0.162150690488761E+00 -0.256012673599583E+00 -0.130730362262621E-01 -0.554207655286739E-03  0.186302154163451E+01  0.356743762908501E-01 -0.340388788594866E-01  0.271708557696622E-02
   0.228052437689876E-02 -0.130730362262505E-01 -0.401770753282847E-03  0.141887231581129E-03  0.356743762908501E-01  0.719641166368802E-03 -0.628412307924085E-03  0.382137126503376E-04
  -0.349051767920053E-02 -0.554207655286808E-03  0.141887231581231E-03  0.107772036757083E-03 -0.340388788594866E-01 -0.628412307924085E-03  0.636891952609647E-03 -0.584890216237398E-04
   0.548319690308711E-03  0.271708557696631E-02  0.382137126503852E-04 -0.584890216237423E-04  0.271708557696622E-02  0.382137126503376E-04 -0.584890216237398E-04  0.918794435974176E-05

 SYMMETRY BLOCK 5.1
   0.199873367632281E+01 -0.155218687462426E-01  0.579387474619887E-02 -0.771326424456726E-02 -0.941735345424527E-04 -0.628908075090469E-04 -0.771326424456672E-02 -0.941735345430065E-04 -0.628908075095389E-04 -0.486279217255468E-03 -0.298312004570953E-01  0.346817822298056E-02 -0.798506569642395E-02 -0.111433985766553E-02  0.163924561873664E-02  0.326081947216358E-18
  -0.155218687462426E-01  0.104485340698990E+01 -0.609126149168489E+00  0.904446121907788E-01 -0.508527600794470E-02 -0.914328267784925E-02  0.904446121907729E-01 -0.508527600794602E-02 -0.914328267784903E-02 -0.190514505428803E-01  0.146022549849400E-01  0.500090506776401E-01 -0.107291531686398E+01 -0.149665885845015E-01  0.398077036143733E-01  0.149078215479852E-16
   0.579387474619887E-02 -0.609126149168489E+00  0.392968717582748E+00  0.131309670942349E+00  0.275756747577776E-02  0.200224781943735E-02  0.131309670942305E+00  0.275756747577978E-02  0.200224781943811E-02  0.201071170356401E-01 -0.310293613353224E-01 -0.636352267639036E-01  0.685322168788890E+00  0.217603355404740E-01 -0.260235136006727E-01  0.769186012972131E-16
  -0.771326424456726E-02  0.904446121907788E-01  0.131309670942349E+00  0.187557670120241E+01  0.321296575959104E-01 -0.350759146457561E-01 -0.693543307390514E-01 -0.349879487166448E-01  0.111676454519403E-02  0.117592974679511E-01 -0.881907450048396E-01 -0.162649703315485E+00  0.201688153863344E+00  0.619539376230972E-01 -0.101955418711595E-01  0.467412854267822E-02
  -0.941735345424527E-04 -0.508527600794470E-02  0.275756747577776E-02  0.321296575959104E-01  0.118458292925403E-02 -0.562107310002636E-03 -0.349879487166285E-01 -0.113157790274743E-02  0.686865508796688E-03 -0.104080397788001E-02  0.223429073908591E-03 -0.477970297786787E-04  0.493356558145260E-02 -0.349822986525336E-06 -0.178201904639583E-03  0.161299457013923E-03
  -0.628908075090469E-04 -0.914328267784925E-02  0.200224781943735E-02 -0.350759146457561E-01 -0.562107310002636E-03  0.709679394664299E-03  0.111676454519362E-02  0.686865508796994E-03  0.361799206436468E-04  0.767739488663287E-04  0.202287773558214E-02  0.259576252935691E-02  0.415849139616677E-02 -0.101451723835205E-02 -0.100930384835675E-03 -0.869795545775967E-04
  -0.771326424456672E-02  0.904446121907729E-01  0.131309670942305E+00 -0.693543307390514E-01 -0.349879487166285E-01  0.111676454519362E-02  0.187557670120236E+01  0.321296575959530E-01 -0.350759146457555E-01  0.117592974679471E-01 -0.881907450048502E-01 -0.162649703315444E+00  0.201688153863342E+00  0.619539376230812E-01 -0.101955418711590E-01 -0.467412854267837E-02
  -0.941735345430065E-04 -0.508527600794602E-02  0.275756747577978E-02 -0.349879487166448E-01 -0.113157790274743E-02  0.686865508796994E-03  0.321296575959530E-01  0.118458292925605E-02 -0.562107310003425E-03 -0.104080397787964E-02  0.223429073909278E-03 -0.477970297798933E-04  0.493356558145876E-02 -0.349822986074349E-06 -0.178201904639819E-03 -0.161299457014064E-03
  -0.628908075095389E-04 -0.914328267784903E-02  0.200224781943811E-02  0.111676454519403E-02  0.686865508796688E-03  0.361799206436468E-04 -0.350759146457555E-01 -0.562107310003425E-03  0.709679394664293E-03  0.767739488656300E-04  0.202287773558238E-02  0.259576252935616E-02  0.415849139616672E-02 -0.101451723835175E-02 -0.100930384835680E-03  0.869795545776013E-04
  -0.486279217255468E-03 -0.190514505428803E-01  0.201071170356401E-01  0.117592974679511E-01 -0.104080397788001E-02  0.767739488663287E-04  0.117592974679471E-01 -0.104080397787964E-02  0.767739488656300E-04  0.200347815726868E+01 -0.612157070001836E-02 -0.139048935706668E-01  0.207524553079206E-01  0.581361430718316E-02 -0.138584260881159E-02  0.357630735352624E-16
  -0.298312004570953E-01  0.146022549849400E-01 -0.310293613353224E-01 -0.881907450048396E-01  0.223429073908591E-03  0.202287773558214E-02 -0.881907450048502E-01  0.223429073909278E-03  0.202287773558238E-02 -0.612157070001836E-02  0.185829247378622E+01  0.712631799049491E-01  0.279679966363727E+00 -0.146543513196721E-01  0.583944889023245E-02  0.670334990751244E-16
   0.346817822298056E-02  0.500090506776401E-01 -0.636352267639036E-01 -0.162649703315485E+00 -0.477970297786787E-04  0.259576252935691E-02 -0.162649703315444E+00 -0.477970297798933E-04  0.259576252935616E-02 -0.139048935706668E-01  0.712631799049491E-01  0.351677891035205E-01 -0.968666836084827E-01 -0.127753630797817E-01  0.457035374456086E-02 -0.709544129892954E-16
  -0.798506569642395E-02 -0.107291531686398E+01  0.685322168788890E+00  0.201688153863344E+00  0.493356558145260E-02  0.415849139616677E-02  0.201688153863342E+00  0.493356558145876E-02  0.415849139616672E-02  0.207524553079206E-01  0.279679966363727E+00 -0.968666836084827E-01  0.125559317968999E+01  0.347573194816122E-01 -0.446956043348711E-01 -0.370016612763297E-16
  -0.111433985766553E-02 -0.149665885845015E-01  0.217603355404740E-01  0.619539376230972E-01 -0.349822986525336E-06 -0.101451723835205E-02  0.619539376230812E-01 -0.349822986074349E-06 -0.101451723835175E-02  0.581361430718316E-02 -0.146543513196721E-01 -0.127753630797817E-01  0.347573194816122E-01  0.472946914001972E-02 -0.155330309775742E-02  0.285581329432453E-16
   0.163924561873664E-02  0.398077036143733E-01 -0.260235136006727E-01 -0.101955418711595E-01 -0.178201904639583E-03 -0.100930384835675E-03 -0.101955418711590E-01 -0.178201904639819E-03 -0.100930384835680E-03 -0.138584260881159E-02  0.583944889023245E-02  0.457035374456086E-02 -0.446956043348711E-01 -0.155330309775742E-02  0.173530724758157E-02  0.104606328853853E-17
   0.326081947216358E-18  0.149078215479852E-16  0.769186012972131E-16  0.467412854267822E-02  0.161299457013923E-03 -0.869795545775967E-04 -0.467412854267837E-02 -0.161299457014064E-03  0.869795545776013E-04  0.357630735352624E-16  0.670334990751244E-16 -0.709544129892954E-16 -0.370016612763297E-16  0.285581329432453E-16  0.104606328853853E-17  0.224660692586838E-04

 SYMMETRY BLOCK 6.1
   0.327227147933408E-01  0.162150690438849E+00  0.228052436898156E-02 -0.349051767717649E-02  0.548319690786231E-03  0.162150690556886E+00  0.228052438756523E-02 -0.349051768205515E-02
   0.162150690438849E+00  0.186302154171864E+01  0.356743762578075E-01 -0.340388788496002E-01  0.271708558435043E-02 -0.256012673608359E+00 -0.130730361967971E-01 -0.554207652060455E-03
   0.228052436898156E-02  0.356743762578075E-01  0.719641165395094E-03 -0.628412307012214E-03  0.382137126889142E-04 -0.130730362574228E-01 -0.401770753429284E-03  0.141887232409961E-03
  -0.349051767717649E-02 -0.340388788496002E-01 -0.628412307012214E-03  0.636891952202546E-03 -0.584890217311655E-04 -0.554207653393327E-03  0.141887230837669E-03  0.107772036690206E-03
   0.548319690786231E-03  0.271708558435043E-02  0.382137126889142E-04 -0.584890217311655E-04  0.918794437450194E-05  0.271708557388476E-02  0.382137127140538E-04 -0.584890216162836E-04
   0.162150690556886E+00 -0.256012673608359E+00 -0.130730362574228E-01 -0.554207653393327E-03  0.271708557388476E-02  0.186302154149422E+01  0.356743763492833E-01 -0.340388788772520E-01
   0.228052438756523E-02 -0.130730361967971E-01 -0.401770753429284E-03  0.141887230837669E-03  0.382137127140538E-04  0.356743763492833E-01  0.719641168316584E-03 -0.628412309492025E-03
  -0.349051768205515E-02 -0.554207652060455E-03  0.141887232409961E-03  0.107772036690206E-03 -0.584890216162836E-04 -0.340388788772520E-01 -0.628412309492025E-03  0.636891953303445E-03

 SYMMETRY BLOCK 7.1
   0.327227147933422E-01  0.548319690786303E-03  0.162150690438849E+00  0.228052436898154E-02 -0.349051767717642E-02  0.162150690556893E+00  0.228052438756403E-02 -0.349051768205529E-02
   0.548319690786303E-03  0.918794437450401E-05  0.271708558435055E-02  0.382137126889143E-04 -0.584890217311675E-04  0.271708557388527E-02  0.382137127140404E-04 -0.584890216162935E-04
   0.162150690438849E+00  0.271708558435055E-02  0.186302154171866E+01  0.356743762577964E-01 -0.340388788495995E-01 -0.256012673608372E+00 -0.130730361967915E-01 -0.554207652059931E-03
   0.228052436898154E-02  0.382137126889143E-04  0.356743762577964E-01  0.719641165394573E-03 -0.628412307012021E-03 -0.130730362574115E-01 -0.401770753428829E-03  0.141887232409789E-03
  -0.349051767717642E-02 -0.584890217311675E-04 -0.340388788495995E-01 -0.628412307012021E-03  0.636891952202515E-03 -0.554207653393222E-03  0.141887230837612E-03  0.107772036690196E-03
   0.162150690556893E+00  0.271708557388527E-02 -0.256012673608372E+00 -0.130730362574115E-01 -0.554207653393222E-03  0.186302154149425E+01  0.356743763492646E-01 -0.340388788772528E-01
   0.228052438756403E-02  0.382137127140404E-04 -0.130730361967915E-01 -0.401770753428829E-03  0.141887230837612E-03  0.356743763492646E-01  0.719641168315830E-03 -0.628412309491700E-03
  -0.349051768205529E-02 -0.584890216162935E-04 -0.554207652059931E-03  0.141887232409789E-03  0.107772036690196E-03 -0.340388788772528E-01 -0.628412309491700E-03  0.636891953303463E-03

 SYMMETRY BLOCK 8.1
   0.000000000000000E+00  0.000000000000000E+00  0.000000000000000E+00
   0.000000000000000E+00  0.000000000000000E+00  0.000000000000000E+00
   0.000000000000000E+00  0.000000000000000E+00  0.000000000000000E+00


 **********************************************************************************************************************************
 DATASETS  * FILE   NREC   LENGTH (MB)   RECORD NAMES
              1      19       15.59       500      610      700      900      950      970     1000      129      960     1100   
                                          VAR    BASINP    GEOM    SYMINP    ZMAT    AOBASIS   BASIS     P2S    ABASIS      S 
                                         1400     1410     1200     1210     1080     1600     1650     1300     1700   
                                           T        V       H0       H01     AOSYM     SMH    MOLCAS    ERIS     OPER   

              2       4        0.52       700     1000      520     2100   
                                         GEOM     BASIS   MCVARS     RHF  

 PROGRAMS   *        TOTAL    MATROP    MATROP        HF       INT
 CPU TIMES  *         1.24      0.00      0.01      0.06      1.06
 REAL TIME  *         1.33 SEC
 DISK USED  *        43.20 MB      
 **********************************************************************************************************************************

        HF-SCF  
   -994.00597855
 **********************************************************************************************************************************
 Variable memory released
