
 Primary working directories    : /home/willy/tmp
 Secondary working directories  : /home/willy/tmp
 Wavefunction directory         : /home/willy/wfu/
 Main file repository           : /home/willy/tmp/

 SHA1      : 0b0b022c660e73fb8d4a354a6920c32f9035fdc5
 NAME      : 2015.1.3
 ARCHNAME  : linux/x86_64
 FC        : /opt/intel/composer_xe_2015.1.133/bin/intel64/ifort
 BLASLIB   : -Wl,-_start-group /opt/intel/mkl/lib/intel64/libmkl_intel_ilp64.a /opt/intel/mkl/lib/intel64/libmkl_intel_thread.a /opt/intel/mkl/lib/intel64/libmkl_core.a -Wl,-_end-group
 id        : uma

 Nodes             nprocs
 neptuno.qfa.uam.es    1

 Using customized tuning parameters: mindgm=1; mindgv=20; mindgc=4; mindgr=1; noblas=0; minvec=7
 default implementation of scratch files=df  

   ***, ClH+
   memory,800,m
   gparam,ibank=1
   gprint,basis,civector                                                         !,orbitals
   GTHRESH, optgrad=1.e-6, energy=1.e-9;
   basis=cc-pv5z
   geometry={
      Cl
      H,Cl,2.409
   }
   wf,17,2,1
   hf
   {multi
           }
   {mrci
    dm,6000.2}
 
      PUT,xyz,clh.xyz,old
                                                                                 !    {put,xml,lih.xml;keepspherical}
 
      {matrop
      load,d,den,6000.2,state=1.2
      print,d
      }
 
      {matrop
      load,orb
      print,orb
      }

 Variables initialized (889), CPU time= 0.01 sec
 Commands  initialized (702), CPU time= 0.00 sec, 572 directives.
 Default parameters read. Elapsed time= 0.05 sec

 Checking input...
 Passed
1


                                         ***  PROGRAM SYSTEM MOLPRO  ***
                                       Copyright, TTI GmbH Stuttgart, 2015
                                    Version 2015.1 linked Feb  5 2016 14:18:43


 **********************************************************************************************************************************
 LABEL *                                                                                 
  64 bit serial version                                                                  DATE: 20-Jul-18          TIME: 11:54:30  
 **********************************************************************************************************************************

 SHA1:             0b0b022c660e73fb8d4a354a6920c32f9035fdc5
 **********************************************************************************************************************************

 MOLPRO SYSTEM PARAMETERS:

 LSEG     =   128   INTREL   =     1   IVECT    =     1   MINVEC   =     7   IBANK    =     1   LTRACK   =  4096
 LTR      =     1   NCPUS    =     1   NOBUFF   =     0   IASYN    =     0   NCACHE   = 16384   MXMBLK   =    64
 MXMBLN   =    64   MINBR1   =  1000   NCHUNK1  =     1   LENBUF   = 32768   NTR      = 32768   MXDMP    =     3
 UNROLL   =     2   NOBLAS   =     0   MINDGM   =     1   MINDGV   =    20   MINDGL   =     4   MINDGR   =     1
 MINDGC   =     4   MINDGF   =  5000   MFLOPDGM = 10000   MFLOPDGV =  4000   MFLOPMXM =  5000   MFLOPMXV =  4000
 MPPLAT   =     3   MPPSPEED =  1600   MXMALAT  =     6   OLDDIAG2 =     0   MINCUDA  =   500   MINDGM2  =    90
 DSYEVD   =     3   DSYEVDG  =     3
 


 THRESHOLDS:

 ZERO    =  1.00D-12  ONEINT  =  1.00D-12  TWOINT  =  1.00D-11  PREFAC  =  1.00D-14  LOCALI  =  1.00D-09  EORDER  =  1.00D-04
 ENERGY  =  1.00D-09  ETEST   =  0.00D+00  EDENS   =  0.00D+00  THRDEDEF=  1.00D-06  GRADIENT=  1.00D-02  STEP    =  1.00D-03
 ORBITAL =  1.00D-05  CIVEC   =  1.00D-05  COEFF   =  1.00D-04  PRINTCI =  5.00D-02  PUNCHCI =  9.90D+01  OPTGRAD =  1.00D-06
 OPTENERG=  1.00D-06  OPTSTEP =  3.00D-04  THRGRAD =  1.00D-10  COMPRESS=  1.00D-11  VARMIN  =  1.00D-07  VARMAX  =  1.00D-03
 THRDOUB =  0.00D+00  THRDIV  =  1.00D-05  THRRED  =  1.00D-07  THRPSP  =  1.00D+00  THRDC   =  1.00D-10  THRCS   =  1.00D-10
 THRNRM  =  1.00D-08  THREQ   =  0.00D+00  THRDE   =  1.00D+00  THRREF  =  1.00D-05  SPARFAC =  1.00D+00  THRDLP  =  1.00D-07
 THRDIA  =  1.00D-10  THRDLS  =  1.00D-07  THRGPS  =  0.00D+00  THRKEX  =  0.00D+00  THRDIS  =  2.00D-01  THRVAR  =  1.00D-10
 THRLOC  =  1.00D-06  THRGAP  =  1.00D-06  THRLOCT = -1.00D+00  THRGAPT = -1.00D+00  THRORB  =  1.00D-06  THRMLTP =  0.00D+00
 THRCPQCI=  1.00D-10  KEXTA   =  0.00D+00  THRCOARS=  0.00D+00  SYMTOL  =  1.00D-06  GRADTOL =  1.00D-06  THROVL  =  1.00D-08
 THRORTH =  1.00D-08  GRID    =  1.00D-06  GRIDMAX =  1.00D-03  DTMAX   =  0.00D+00  THROCCDE=  1.00D-01  THROCCDE=  1.00D-01



 Variable memory set to  800000000 words,  buffer space   230000 words

 SETTING BASIS          =    CC-PV5Z


 Recomputing integrals since basis changed


 Using spherical harmonics

 Library entry CL     S cc-pV5Z              selected for orbital group  1
 Library entry CL     P cc-pV5Z              selected for orbital group  1
 Library entry CL     D cc-pV5Z              selected for orbital group  1
 Library entry CL     F cc-pV5Z              selected for orbital group  1
 Library entry CL     G cc-pV5Z              selected for orbital group  1
 Library entry CL     H cc-pV5Z              selected for orbital group  1
 Library entry H      S cc-pV5Z              selected for orbital group  2
 Library entry H      P cc-pV5Z              selected for orbital group  2
 Library entry H      D cc-pV5Z              selected for orbital group  2
 Library entry H      F cc-pV5Z              selected for orbital group  2
 Library entry H      G cc-pV5Z              selected for orbital group  2

1PROGRAM * SEWARD (Integral evaluation for generally contracted gaussian basis sets)     Author: Roland Lindh, 1990

 Geometry written to block  1 of record 700

 Orientation using atomic masses  
 Molecule type: Linear
 Symmetry elements: X,Y
 Rotational constants:     317.3083590    317.3083590      0.0000000 GHz  (calculated with average atomic masses)

 Point group  C2v 



 ATOMIC COORDINATES

 NR  ATOM    CHARGE       X              Y              Z

   1  CL     17.00    0.000000000    0.000000000   -0.066595306
   2  H       1.00    0.000000000    0.000000000    2.342404694

 Bond lengths in Bohr (Angstrom)

 1-2  2.409000000
     ( 1.274787901)


 BASIS DATA

   Nr Sym  Nuc  Type         Exponents   Contraction coefficients

    1.1 A1    1  1s     6410000.000000     0.000002   -0.000001    0.000000    0.000000    0.000000    0.000000
                                           0.000000
    2.1 A1               959600.000000     0.000014   -0.000004    0.000001    0.000000    0.000000    0.000000
                                           0.000000
    3.1 A1               218300.000000     0.000074   -0.000021    0.000006    0.000000    0.000000    0.000000
                                           0.000000
    4.1 A1                61810.000000     0.000314   -0.000088    0.000027    0.000000    0.000000    0.000000
                                           0.000000
    5.1 A1                20140.000000     0.001146   -0.000322    0.000097    0.000000    0.000000    0.000000
                                           0.000000
    6.1 A1                 7264.000000     0.003739   -0.001053    0.000318    0.000000    0.000000    0.000000
                                           0.000000
    7.1 A1                 2832.000000     0.011095   -0.003142    0.000952    0.000000    0.000000    0.000000
                                           0.000000
                           1175.000000     0.030115   -0.008664    0.002624    0.000000    0.000000    0.000000
                                           0.000000
                            512.600000     0.073914   -0.021935    0.006682    0.000000    0.000000    0.000000
                                           0.000000
                            233.000000     0.158258   -0.050258    0.015359    0.000000    0.000000    0.000000
                                           0.000000
                            109.500000     0.274753   -0.099541    0.030943    0.000000    0.000000    0.000000
                                           0.000000
                             52.860000     0.334066   -0.157647    0.050064    0.000000    0.000000    0.000000
                                           0.000000
                             25.840000     0.217589   -0.146024    0.048978    0.000000    0.000000    0.000000
                                           0.000000
                             12.170000     0.045728    0.069223   -0.026081    0.000000    0.000000    0.000000
                                           0.000000
                              6.030000    -0.000135    0.430412   -0.178426    0.000000    0.000000    0.000000
                                           0.000000
                              3.012000     0.001639    0.490802   -0.332324    0.000000    0.000000    0.000000
                                           0.000000
                              1.511000    -0.000522    0.158390   -0.132008    1.000000    0.000000    0.000000
                                           0.000000
                              0.660400     0.000181    0.008399    0.440556    0.000000    1.000000    0.000000
                                           0.000000
                              0.292600    -0.000100    0.000768    0.611891    0.000000    0.000000    1.000000
                                           0.000000
                              0.125400     0.000019    0.000227    0.193172    0.000000    0.000000    0.000000
                                           1.000000
    8.1 A1    1  2pz       2548.000000     0.000236   -0.000064    0.000000    0.000000    0.000000    0.000000
    9.1 A1                  603.700000     0.002052   -0.000553    0.000000    0.000000    0.000000    0.000000
   10.1 A1                  195.600000     0.011154   -0.003028    0.000000    0.000000    0.000000    0.000000
   11.1 A1                   74.150000     0.043982   -0.012065    0.000000    0.000000    0.000000    0.000000
   12.1 A1                   30.940000     0.129994   -0.036635    0.000000    0.000000    0.000000    0.000000
   13.1 A1                   13.690000     0.272959   -0.079076    0.000000    0.000000    0.000000    0.000000
                              6.229000     0.383690   -0.117422    0.000000    0.000000    0.000000    0.000000
                              2.878000     0.291870   -0.086094    0.000000    0.000000    0.000000    0.000000
                              1.282000     0.070446    0.140308    1.000000    0.000000    0.000000    0.000000
                              0.564100     0.001288    0.422336    0.000000    1.000000    0.000000    0.000000
                              0.234800     0.001826    0.446363    0.000000    0.000000    1.000000    0.000000
                              0.093120     0.000020    0.166634    0.000000    0.000000    0.000000    1.000000
   14.1 A1    1  3d0          0.250000     1.000000
   15.1 A1    1  3d2+         0.250000     1.000000
   16.1 A1    1  3d0          0.618000     1.000000
   17.1 A1    1  3d2+         0.618000     1.000000
   18.1 A1    1  3d0          1.529000     1.000000
   19.1 A1    1  3d2+         1.529000     1.000000
   20.1 A1    1  3d0          3.781000     1.000000
   21.1 A1    1  3d2+         3.781000     1.000000
   22.1 A1    1  4f0          0.320000     1.000000
   23.1 A1    1  4f2+         0.320000     1.000000
   24.1 A1    1  4f0          0.656000     1.000000
   25.1 A1    1  4f2+         0.656000     1.000000
   26.1 A1    1  4f0          1.345000     1.000000
   27.1 A1    1  4f2+         1.345000     1.000000
   28.1 A1    1  5g0          0.556000     1.000000
   29.1 A1    1  5g4+         0.556000     1.000000
   30.1 A1    1  5g2+         0.556000     1.000000
   31.1 A1    1  5g0          1.302000     1.000000
   32.1 A1    1  5g4+         1.302000     1.000000
   33.1 A1    1  5g2+         1.302000     1.000000
   34.1 A1    1  6h2+         1.053000     1.000000
   35.1 A1    1  6h4+         1.053000     1.000000
   36.1 A1    1  6h0          1.053000     1.000000
   37.1 A1    2  1s         402.000000     0.000279    0.000000    0.000000    0.000000    0.000000
   38.1 A1                   60.240000     0.002165    0.000000    0.000000    0.000000    0.000000
   39.1 A1                   13.730000     0.011201    0.000000    0.000000    0.000000    0.000000
   40.1 A1                    3.905000     0.044878    0.000000    0.000000    0.000000    0.000000
   41.1 A1                    1.283000     0.142299    1.000000    0.000000    0.000000    0.000000
                              0.465500     0.330979    0.000000    1.000000    0.000000    0.000000
                              0.181100     0.436269    0.000000    0.000000    1.000000    0.000000
                              0.072790     0.176440    0.000000    0.000000    0.000000    1.000000
   42.1 A1    2  2pz          4.516000     1.000000
   43.1 A1    2  2pz          1.712000     1.000000
   44.1 A1    2  2pz          0.649000     1.000000
   45.1 A1    2  2pz          0.246000     1.000000
   46.1 A1    2  3d0          2.950000     1.000000
   47.1 A1    2  3d2+         2.950000     1.000000
   48.1 A1    2  3d0          1.206000     1.000000
   49.1 A1    2  3d2+         1.206000     1.000000
   50.1 A1    2  3d0          0.493000     1.000000
   51.1 A1    2  3d2+         0.493000     1.000000
   52.1 A1    2  4f0          2.506000     1.000000
   53.1 A1    2  4f2+         2.506000     1.000000
   54.1 A1    2  4f0          0.875000     1.000000
   55.1 A1    2  4f2+         0.875000     1.000000
   56.1 A1    2  5g0          2.358000     1.000000
   57.1 A1    2  5g4+         2.358000     1.000000
   58.1 A1    2  5g2+         2.358000     1.000000
    1.2 B1    1  2px       2548.000000     0.000236   -0.000064    0.000000    0.000000    0.000000    0.000000
    2.2 B1                  603.700000     0.002052   -0.000553    0.000000    0.000000    0.000000    0.000000
    3.2 B1                  195.600000     0.011154   -0.003028    0.000000    0.000000    0.000000    0.000000
    4.2 B1                   74.150000     0.043982   -0.012065    0.000000    0.000000    0.000000    0.000000
    5.2 B1                   30.940000     0.129994   -0.036635    0.000000    0.000000    0.000000    0.000000
    6.2 B1                   13.690000     0.272959   -0.079076    0.000000    0.000000    0.000000    0.000000
                              6.229000     0.383690   -0.117422    0.000000    0.000000    0.000000    0.000000
                              2.878000     0.291870   -0.086094    0.000000    0.000000    0.000000    0.000000
                              1.282000     0.070446    0.140308    1.000000    0.000000    0.000000    0.000000
                              0.564100     0.001288    0.422336    0.000000    1.000000    0.000000    0.000000
                              0.234800     0.001826    0.446363    0.000000    0.000000    1.000000    0.000000
                              0.093120     0.000020    0.166634    0.000000    0.000000    0.000000    1.000000
    7.2 B1    1  3d1+         0.250000     1.000000
    8.2 B1    1  3d1+         0.618000     1.000000
    9.2 B1    1  3d1+         1.529000     1.000000
   10.2 B1    1  3d1+         3.781000     1.000000
   11.2 B1    1  4f1+         0.320000     1.000000
   12.2 B1    1  4f3+         0.320000     1.000000
   13.2 B1    1  4f1+         0.656000     1.000000
   14.2 B1    1  4f3+         0.656000     1.000000
   15.2 B1    1  4f1+         1.345000     1.000000
   16.2 B1    1  4f3+         1.345000     1.000000
   17.2 B1    1  5g1+         0.556000     1.000000
   18.2 B1    1  5g3+         0.556000     1.000000
   19.2 B1    1  5g1+         1.302000     1.000000
   20.2 B1    1  5g3+         1.302000     1.000000
   21.2 B1    1  6h1+         1.053000     1.000000
   22.2 B1    1  6h3+         1.053000     1.000000
   23.2 B1    1  6h5+         1.053000     1.000000
   24.2 B1    2  2px          4.516000     1.000000
   25.2 B1    2  2px          1.712000     1.000000
   26.2 B1    2  2px          0.649000     1.000000
   27.2 B1    2  2px          0.246000     1.000000
   28.2 B1    2  3d1+         2.950000     1.000000
   29.2 B1    2  3d1+         1.206000     1.000000
   30.2 B1    2  3d1+         0.493000     1.000000
   31.2 B1    2  4f1+         2.506000     1.000000
   32.2 B1    2  4f3+         2.506000     1.000000
   33.2 B1    2  4f1+         0.875000     1.000000
   34.2 B1    2  4f3+         0.875000     1.000000
   35.2 B1    2  5g1+         2.358000     1.000000
   36.2 B1    2  5g3+         2.358000     1.000000
    1.3 B2    1  2py       2548.000000     0.000236   -0.000064    0.000000    0.000000    0.000000    0.000000
    2.3 B2                  603.700000     0.002052   -0.000553    0.000000    0.000000    0.000000    0.000000
    3.3 B2                  195.600000     0.011154   -0.003028    0.000000    0.000000    0.000000    0.000000
    4.3 B2                   74.150000     0.043982   -0.012065    0.000000    0.000000    0.000000    0.000000
    5.3 B2                   30.940000     0.129994   -0.036635    0.000000    0.000000    0.000000    0.000000
    6.3 B2                   13.690000     0.272959   -0.079076    0.000000    0.000000    0.000000    0.000000
                              6.229000     0.383690   -0.117422    0.000000    0.000000    0.000000    0.000000
                              2.878000     0.291870   -0.086094    0.000000    0.000000    0.000000    0.000000
                              1.282000     0.070446    0.140308    1.000000    0.000000    0.000000    0.000000
                              0.564100     0.001288    0.422336    0.000000    1.000000    0.000000    0.000000
                              0.234800     0.001826    0.446363    0.000000    0.000000    1.000000    0.000000
                              0.093120     0.000020    0.166634    0.000000    0.000000    0.000000    1.000000
    7.3 B2    1  3d1-         0.250000     1.000000
    8.3 B2    1  3d1-         0.618000     1.000000
    9.3 B2    1  3d1-         1.529000     1.000000
   10.3 B2    1  3d1-         3.781000     1.000000
   11.3 B2    1  4f1-         0.320000     1.000000
   12.3 B2    1  4f3-         0.320000     1.000000
   13.3 B2    1  4f1-         0.656000     1.000000
   14.3 B2    1  4f3-         0.656000     1.000000
   15.3 B2    1  4f1-         1.345000     1.000000
   16.3 B2    1  4f3-         1.345000     1.000000
   17.3 B2    1  5g1-         0.556000     1.000000
   18.3 B2    1  5g3-         0.556000     1.000000
   19.3 B2    1  5g1-         1.302000     1.000000
   20.3 B2    1  5g3-         1.302000     1.000000
   21.3 B2    1  6h1-         1.053000     1.000000
   22.3 B2    1  6h3-         1.053000     1.000000
   23.3 B2    1  6h5-         1.053000     1.000000
   24.3 B2    2  2py          4.516000     1.000000
   25.3 B2    2  2py          1.712000     1.000000
   26.3 B2    2  2py          0.649000     1.000000
   27.3 B2    2  2py          0.246000     1.000000
   28.3 B2    2  3d1-         2.950000     1.000000
   29.3 B2    2  3d1-         1.206000     1.000000
   30.3 B2    2  3d1-         0.493000     1.000000
   31.3 B2    2  4f1-         2.506000     1.000000
   32.3 B2    2  4f3-         2.506000     1.000000
   33.3 B2    2  4f1-         0.875000     1.000000
   34.3 B2    2  4f3-         0.875000     1.000000
   35.3 B2    2  5g1-         2.358000     1.000000
   36.3 B2    2  5g3-         2.358000     1.000000
    1.4 A2    1  3d2-         0.250000     1.000000
    2.4 A2    1  3d2-         0.618000     1.000000
    3.4 A2    1  3d2-         1.529000     1.000000
    4.4 A2    1  3d2-         3.781000     1.000000
    5.4 A2    1  4f2-         0.320000     1.000000
    6.4 A2    1  4f2-         0.656000     1.000000
    7.4 A2    1  4f2-         1.345000     1.000000
    8.4 A2    1  5g2-         0.556000     1.000000
    9.4 A2    1  5g4-         0.556000     1.000000
   10.4 A2    1  5g2-         1.302000     1.000000
   11.4 A2    1  5g4-         1.302000     1.000000
   12.4 A2    1  6h4-         1.053000     1.000000
   13.4 A2    1  6h2-         1.053000     1.000000
   14.4 A2    2  3d2-         2.950000     1.000000
   15.4 A2    2  3d2-         1.206000     1.000000
   16.4 A2    2  3d2-         0.493000     1.000000
   17.4 A2    2  4f2-         2.506000     1.000000
   18.4 A2    2  4f2-         0.875000     1.000000
   19.4 A2    2  5g2-         2.358000     1.000000
   20.4 A2    2  5g4-         2.358000     1.000000

 NUCLEAR CHARGE:                   18
 NUMBER OF PRIMITIVE AOS:         234
 NUMBER OF SYMMETRY AOS:          184
 NUMBER OF CONTRACTIONS:          150   (  58A1  +  36B1  +  36B2  +  20A2  )
 NUMBER OF CORE ORBITALS:           5   (   3A1  +   1B1  +   1B2  +   0A2  )
 NUMBER OF VALENCE ORBITALS:        5   (   3A1  +   1B1  +   1B2  +   0A2  )


 NUCLEAR REPULSION ENERGY    7.05687007

 EXTRA SYMMETRY OF AOS IN SYMMETRY 1:   1 1 1 1 1 1 1 1 1 1   1 1 1 1 2 1 2 1 2 1   2 1 2 1 2 1 2 1 3 2   1 3 2 2 3 1 1 1 1 1
                                        1 1 1 1 1 1 2 1 2 1   2 1 2 1 2 1 3 2
 EXTRA SYMMETRY OF AOS IN SYMMETRY 2:   1 1 1 1 1 1 1 1 1 1   1 2 1 2 1 2 1 2 1 2   1 2 3 1 1 1 1 1 1 1   1 2 1 2 1 2
 EXTRA SYMMETRY OF AOS IN SYMMETRY 3:   1 1 1 1 1 1 1 1 1 1   1 2 1 2 1 2 1 2 1 2   1 2 3 1 1 1 1 1 1 1   1 2 1 2 1 2
 EXTRA SYMMETRY OF AOS IN SYMMETRY 4:   1 1 1 1 1 1 1 1 2 1   2 2 1 1 1 1 1 1 1 2

 Eigenvalues of metric

         1 0.584E-05 0.232E-04 0.165E-03 0.539E-03 0.116E-02 0.264E-02 0.461E-02 0.211E-01
         2 0.653E-05 0.366E-02 0.143E-01 0.318E-01 0.522E-01 0.730E-01 0.864E-01 0.927E-01
         3 0.653E-05 0.366E-02 0.143E-01 0.318E-01 0.522E-01 0.730E-01 0.864E-01 0.927E-01
         4 0.657E-01 0.702E-01 0.843E-01 0.146E+00 0.346E+00 0.383E+00 0.388E+00 0.517E+00


 Contracted 2-electron integrals neglected if value below      1.0D-14
 AO integral compression algorithm  1   Integral accuracy      1.0D-14

     113.770 MB (compressed) written to integral file ( 74.3%)


 NUMBER OF SORTED TWO-ELECTRON INTEGRALS:   16525987.     BUFFER LENGTH:  32768
 NUMBER OF SEGMENTS:   2  SEGMENT LENGTH:   15999811      RECORD LENGTH: 524288

 Memory used in sort:      16.56 MW

 SORT1 READ    19165630. AND WROTE    11117043. INTEGRALS IN     33 RECORDS. CPU TIME:     0.34 SEC, REAL TIME:     0.43 SEC
 SORT2 READ    11117043. AND WROTE    16525987. INTEGRALS IN    434 RECORDS. CPU TIME:     0.26 SEC, REAL TIME:     0.35 SEC

 FILE SIZES:   FILE 1:   133.4 MBYTE,  FILE 4:   138.4 MBYTE,   TOTAL:    271.8 MBYTE

 OPERATOR DM      FOR CENTER  0  COORDINATES:    0.000000    0.000000    0.000000


 **********************************************************************************************************************************
 DATASETS  * FILE   NREC   LENGTH (MB)   RECORD NAMES
              1      19      109.98       500      610      700      900      950      970     1000      129      960     1100   
                                          VAR    BASINP    GEOM    SYMINP    ZMAT    AOBASIS   BASIS     P2S    ABASIS      S 
                                         1400     1410     1200     1210     1080     1600     1650     1300     1700   
                                           T        V       H0       H01     AOSYM     SMH    MOLCAS    ERIS     OPER   

 PROGRAMS   *        TOTAL       INT
 CPU TIMES  *         4.00      3.90
 REAL TIME  *         4.57 SEC
 DISK USED  *       272.15 MB      
 **********************************************************************************************************************************

1PROGRAM * RHF-SCF (OPEN SHELL)       Authors: W. Meyer, H.-J. Werner


 NUMBER OF ELECTRONS:       9+    8-    SPACE SYMMETRY=2    SPIN SYMMETRY: Doublet 
 CONVERGENCE THRESHOLDS:    1.00E-06 (Density)    1.00E-10 (Energy)
 MAX. NUMBER OF ITERATIONS:       60
 INTERPOLATION TYPE:            DIIS
 INTERPOLATION STEPS:              2 (START)      1 (STEP)
 LEVEL SHIFTS:                 -0.60 (CLOSED) -0.30 (OPEN) 



 Orbital guess generated from atomic densities. Full valence occupancy:    6   2   2   0

 Molecular orbital dump at record        2100.2

 Initial alpha occupancy:   5   2   2   0
 Initial beta  occupancy:   5   1   2   0
 Wave function symmetry:    2

 ITERATION    DDIFF          GRAD             ENERGY        2-EL.EN.            DIPOLE MOMENTS         DIIS   ORB.
    1      0.000D+00      0.000D+00      -459.63482296    346.616385    0.00000    0.00000    0.90344    0    start
    2      0.000D+00      0.890D-02      -459.67705628    350.425984    0.00000    0.00000    0.74433    1    diag,B
    3      0.818D-02      0.291D-02      -459.68169439    350.896842    0.00000    0.00000    0.69229    2    diag,B
    4      0.539D-02      0.104D-02      -459.68260431    351.108754    0.00000    0.00000    0.66944    3    diag,B
    5      0.163D-02      0.385D-03      -459.68276306    351.141502    0.00000    0.00000    0.66151    4    diag,B
    6      0.596D-03      0.136D-03      -459.68278660    351.139974    0.00000    0.00000    0.65944    5    diag,B
    7      0.240D-03      0.470D-04      -459.68278957    351.136258    0.00000    0.00000    0.65862    6    fixocc
    8      0.108D-03      0.111D-04      -459.68278970    351.135295    0.00000    0.00000    0.65838    7    diag,B
    9      0.281D-04      0.267D-05      -459.68278971    351.135151    0.00000    0.00000    0.65834    8    diag,B
   10      0.546D-05      0.806D-06      -459.68278971    351.135172    0.00000    0.00000    0.65833    9    orth
   11      0.263D-05      0.189D-06      -459.68278971    351.135175    0.00000    0.00000    0.65833    9    diag,B
   12      0.354D-06      0.495D-07      -459.68278971    351.135176    0.00000    0.00000    0.65833    0    orth

 Final alpha occupancy:   5   2   2   0
 Final beta  occupancy:   5   1   2   0

 !RHF STATE 1.2 Energy               -459.682789713292
 Nuclear energy                         7.05687007
 One-electron energy                 -642.30724756
 Two-electron energy                  175.56758778
 Virial quotient                       -0.99993842
 !RHF STATE 1.2 Dipole moment           0.00000000     0.00000000     0.65833208
 Dipole moment /Debye                   0.00000000     0.00000000     1.67320364

 Orbital energies:

         1.1          2.1          3.1          4.1          5.1          6.1          7.1
   -105.297728   -11.017053    -8.481783    -1.497769    -0.999514    -0.162808    -0.062856

         1.2          2.2          3.2          4.2
     -8.482496    -0.939626     0.023201     0.070872

         1.3          2.3          3.3          4.3
     -8.480051    -0.859829     0.040264     0.096990

         1.4          2.4
      0.141091     0.803640

 HOMO      2.3    -0.859829 =     -23.3971eV
 LUMO      6.1    -0.162808 =      -4.4302eV
 LUMO-HOMO         0.697021 =      18.9669eV


 **********************************************************************************************************************************
 DATASETS  * FILE   NREC   LENGTH (MB)   RECORD NAMES
              1      19      109.98       500      610      700      900      950      970     1000      129      960     1100   
                                          VAR    BASINP    GEOM    SYMINP    ZMAT    AOBASIS   BASIS     P2S    ABASIS      S 
                                         1400     1410     1200     1210     1080     1600     1650     1300     1700   
                                           T        V       H0       H01     AOSYM     SMH    MOLCAS    ERIS     OPER   

              2       4        2.95       700     1000      520     2100   
                                         GEOM     BASIS   MCVARS     RHF  

 PROGRAMS   *        TOTAL        HF       INT
 CPU TIMES  *         4.91      0.91      3.90
 REAL TIME  *         5.60 SEC
 DISK USED  *       272.15 MB      
 **********************************************************************************************************************************

1PROGRAM * MULTI (Direct Multiconfiguration SCF)       Authors: P.J. Knowles, H.-J. Werner (1984)     S.T. Elbert (1988)


 Number of closed-shell orbitals:   5 (   3   1   1   0 )
 Number of active  orbitals:        5 (   3   1   1   0 )
 Number of external orbitals:     140 (  52  34  34  20 )

 State symmetry 1

 Number of electrons:     7    Spin symmetry=Doublet   Space symmetry=2
 Number of states:        1
 Number of CSFs:         10   (13 determinants, 50 intermediate states)

 Molecular orbitals read from record     2100.2  Type=RHF/CANONICAL (state 1.2)
 *** IN SYMMETRY 1 ORBITAL  1 SYMMETRY CONTAMINATION OF 0.258D-04 HAS BEEN REMOVED
 *** IN SYMMETRY 1 ORBITAL  2 SYMMETRY CONTAMINATION OF 0.129D-02 HAS BEEN REMOVED
 *** IN SYMMETRY 1 ORBITAL  3 SYMMETRY CONTAMINATION OF 0.140D-02 HAS BEEN REMOVED
 *** IN SYMMETRY 1 ORBITAL  4 SYMMETRY CONTAMINATION OF 0.315D-02 HAS BEEN REMOVED
 *** IN SYMMETRY 1 ORBITAL  5 SYMMETRY CONTAMINATION OF 0.316D-02 HAS BEEN REMOVED
 *** IN SYMMETRY 1 ORBITAL  6 SYMMETRY CONTAMINATION OF 0.913D-02 HAS BEEN REMOVED

 EXTRA SYMMETRY OF MOS IN SYMMETRY 1:   1 1 1 1 1 1 1 1 2 1   1 1 1 2 1 2 1 1 2 1   1 1 3 2 2 1 1 1 2 1   2 1 2 1 3 1 2 1 1 3
                                        2 1 2 1 1 2 1 3 2 1   2 1 2 1 1 1 1 1
 *** IN SYMMETRY 2 ORBITAL  1 SYMMETRY CONTAMINATION OF 0.142D-02 HAS BEEN REMOVED
 *** IN SYMMETRY 2 ORBITAL  2 SYMMETRY CONTAMINATION OF 0.137D-01 HAS BEEN REMOVED
 EXTRA SYMMETRY OF MOS IN SYMMETRY 2:   1 1 1 1 1 2 1 1 1 1   1 2 2 1 1 2 1 1 1 1   3 2 1 2 1 2 1 1 1 2   2 1 1 1 1 1
 *** IN SYMMETRY 3 ORBITAL  1 SYMMETRY CONTAMINATION OF 0.133D-02 HAS BEEN REMOVED
 *** IN SYMMETRY 3 ORBITAL  2 SYMMETRY CONTAMINATION OF 0.684D-02 HAS BEEN REMOVED
 EXTRA SYMMETRY OF MOS IN SYMMETRY 3:   1 1 1 1 1 2 1 1 1 1   1 2 2 1 1 2 1 1 1 1   3 2 2 1 1 2 1 1 1 2   2 1 1 1 1 1
 EXTRA SYMMETRY OF MOS IN SYMMETRY 4:   1 1 1 1 2 1 1 1 1 1   2 1 2 1 1 1 2 1 1 1

 Wavefunction dump at record             2140.2

 Convergence thresholds  0.10E-01 (gradient)  0.10E-08 (energy)  0.10E-02 (step length)

 Number of orbital rotations:      459   (    11 Core/Active    224 Core/Virtual   0 Active/Active    224 Active/Virtual)
 Total number of variables:        472


 ITER. MIC  NCI  NEG     ENERGY(VAR)     ENERGY(PROJ)   ENERGY CHANGE     GRAD(0)  GRAD(ORB)   GRAD(CI)     STEP       TIME

   1   40    7    0    -459.68607797    -459.70061609   -0.01453812    0.01103333 0.00002187 0.00000000  0.69D+00      0.21
   2   34    8    0    -459.70071502    -459.70085621   -0.00014119    0.00806100 0.00000000 0.00000000  0.76D-01      0.41
   3   34    8    0    -459.70085668    -459.70085680   -0.00000012    0.00011488 0.00000000 0.00000000  0.29D-02      0.60
   4   33    5    0    -459.70085680    -459.70085680   -0.00000000    0.00000288 0.00000000 0.00000000  0.12D-03      0.79

 ** WVFN ****  CONVERGENCE REACHED, FINAL GRADIENT:  0.51D-06


 First order charge density matrix for state 1.2 saved on record  2140.2 (density set 1)

 Results for state 1.2
 =====================

 !MCSCF STATE 1.2 Energy             -459.700856800286
 Nuclear energy                         7.05687007
 Kinetic energy                       459.74975189
 One electron energy                 -642.29286414
 Two electron energy                  175.53513727
 Virial ratio                           1.99989365

 !MCSCF STATE 1.2 Dipole moment         0.00000000     0.00000000     0.63323601
 Dipole moment /Debye                   0.00000000     0.00000000     1.60941998


 EXTRA SYMMETRY OF MOS IN SYMMETRY 1:   1 1 1 1 1 1 1 1 1 2   1 1 1 2 1 2 1 1 2 1   1 1 3 2 2 1 1 1 2 1   2 1 2 1 3 1 2 1 1 3
                                        2 1 2 1 1 2 1 3 2 1   2 1 2 1 1 1 1 1

 Natural orbital dump at molpro section  2140.2    (Orbital set 2)


 CI vector
 =========

 220 a 2       0.9931822
 202 a 2      -0.1012358

 TOTAL ENERGIES                      -459.70085680



 **********************************************************************************************************************************
 DATASETS  * FILE   NREC   LENGTH (MB)   RECORD NAMES
              1      20      114.02       500      610      700      900      950      970     1000      129      960     1100   
                                          VAR    BASINP    GEOM    SYMINP    ZMAT    AOBASIS   BASIS     P2S    ABASIS      S 
                                         1400     1410     1200     1210     1080     1600     1650     1300     1700     1380   
                                           T        V       H0       H01     AOSYM     SMH    MOLCAS    ERIS     OPER     JKOP   

              2       5        5.68       700     1000      520     2100     2140   
                                         GEOM     BASIS   MCVARS     RHF     MCSCF   

 PROGRAMS   *        TOTAL     MULTI        HF       INT
 CPU TIMES  *         5.89      0.98      0.91      3.90
 REAL TIME  *         6.73 SEC
 DISK USED  *       272.15 MB      
 **********************************************************************************************************************************

1PROGRAM * CI (Multireference internally contracted CI)     Authors: H.-J. Werner, P.J. Knowles, 1987


 Convergence thresholds:  THRVAR = 1.00D-08  THRDEN = 1.00D-09

 Number of optimized states:  1  Roots:   1
 Number of reference states:  1  Roots:   1

 Reference symmetry:                   2   Doublet 
 Number of electrons:                 17
 Maximum number of shells:             4
 Maximum number of spin couplings:    14

 Reference space:        7 conf       10 CSFs
 N elec internal:       30 conf       40 CSFs
 N-1 el internal:       45 conf       95 CSFs
 N-2 el internal:       35 conf      130 CSFs

 Number of electrons in valence space:                      7
 Maximum number of open shell orbitals in reference space:  3
 Maximum number of open shell orbitals in internal spaces:  7


 Number of core orbitals:           5 (   3   1   1   0 )
 Number of active  orbitals:        5 (   3   1   1   0 )
 Number of external orbitals:     140 (  52  34  34  20 )

 Molecular orbitals read from record     2140.2  Type=MCSCF/NATURAL (state 1.2)

 Coulomb and exchange operators available. No transformation done.

 Number of p-space configurations:   1

 Reference wavefunction optimized for reference space (refopt=1)

 State     Reference Energy 
   1        -459.70085680

 Number of blocks in overlap matrix:     8   Smallest eigenvalue:  0.28D-02
 Number of N-2 electron functions:      24
 Number of N-1 electron functions:      95

 Number of internal configurations:                   10
 Number of singly external configurations:          3322
 Number of doubly external configurations:         61128
 Total number of contracted configurations:        64460
 Total number of uncontracted configurations:     326780

 Diagonal Coupling coefficients finished.               Storage:    6110 words, CPU-Time:      0.00 seconds.
 Energy denominators for pairs finished in 1 passes.    Storage:   61655 words, CPU-time:      0.00 seconds.

  ITER. STATE  ROOT     SQ.NORM     CORR.ENERGY   TOTAL ENERGY   ENERGY CHANGE       DEN1      VAR(S)    VAR(P)      TIME
    1     1     1     1.00000000     0.00000000  -459.70085680    -0.00000000    -0.19545506  0.28D-01  0.42D-01     0.08
    2     1     1     1.06140463    -0.18267776  -459.88353456    -0.18267776    -0.00441746  0.69D-03  0.77D-03     0.31
    3     1     1     1.06417623    -0.18732669  -459.88818349    -0.00464893    -0.00021855  0.33D-04  0.38D-04     0.55
    4     1     1     1.06524571    -0.18757083  -459.88842763    -0.00024414    -0.00001388  0.22D-05  0.24D-05     0.79
    5     1     1     1.06536481    -0.18758637  -459.88844317    -0.00001555    -0.00000096  0.14D-06  0.16D-06     1.03
    6     1     1     1.06535035    -0.18758743  -459.88844423    -0.00000105    -0.00000005  0.54D-08  0.84D-08     1.27
    7     1     1     1.06534756    -0.18758748  -459.88844428    -0.00000005    -0.00000000  0.27D-09  0.47D-09     1.51
    8     1     1     1.06534820    -0.18758748  -459.88844429    -0.00000000    -0.00000000  0.17D-10  0.29D-10     1.75
    9     1     1     1.06534817    -0.18758749  -459.88844429    -0.00000000    -0.00000000  0.93D-12  0.19D-11     1.99


 =====================================
 Analysis of CPU times by interactions
 =====================================

       I      S      P

 I   0.0%
 S   0.0%   0.5%
 P   0.0%   1.5%  11.6%

 Initialization:   3.5%
 Other:           82.9%

 Total CPU:        2.0 seconds
 =====================================



 Reference coefficients greater than 0.0500000
 =============================================
 220/2           0.9634047
 202/2          -0.0873282



 RESULTS FOR STATE 1.2
 =====================

 Coefficient of reference function:   C(0) = 0.96874504 (fixed)   0.96884481 (relaxed)

 Energy contributions of configuration classes

 CLASS          SQ.NORM        ECORR1        ECORR2
 +++++++++++++++++++++++++++++++++++++++++++++++++++
 Internals    0.00020599    0.00000000   -0.00003626
 Singles      0.02484816   -0.05229293   -0.05344960
 Pairs        0.04051347   -0.13529456   -0.13410162
 Total        1.06556762   -0.18758749   -0.18758749
 +++++++++++++++++++++++++++++++++++++++++++++++++++


 Reference energy                    -459.70085680
 Nuclear energy                         7.05687007
 Kinetic energy                       459.92241262
 One electron energy                 -642.30616371
 Two electron energy                  175.36084935
 Virial quotient                       -0.99992614
 Correlation energy                    -0.18758749
 !MRCI STATE 1.2 Energy              -459.888444285460

 Properties without orbital relaxation:

 !MRCI STATE 1.2 Dipole moment          0.00000000     0.00000000     0.63272302
 Dipole moment /Debye                   0.00000000     0.00000000     1.60811616

 Cluster corrected energies          -459.90074395 (Davidson, fixed reference)
 Cluster corrected energies          -459.90070278 (Davidson, relaxed reference)

 Cluster corrected energies          -459.89681893 (Pople, fixed reference)
 Cluster corrected energies          -459.89679033 (Pople, relaxed reference)


 Density matrix saved on record      6000.2 (density set 1)


 **********************************************************************************************************************************
 DATASETS  * FILE   NREC   LENGTH (MB)   RECORD NAMES
              1      20      114.02       500      610      700      900      950      970     1000      129      960     1100   
                                          VAR    BASINP    GEOM    SYMINP    ZMAT    AOBASIS   BASIS     P2S    ABASIS      S 
                                         1400     1410     1200     1210     1080     1600     1650     1300     1700     1380   
                                           T        V       H0       H01     AOSYM     SMH    MOLCAS    ERIS     OPER     JKOP   

              2       6        8.22       700     1000      520     2100     2140     6000   
                                         GEOM     BASIS   MCVARS     RHF     MCSCF    MRCI   

 PROGRAMS   *        TOTAL      MRCI     MULTI        HF       INT
 CPU TIMES  *         7.92      2.02      0.98      0.91      3.90
 REAL TIME  *         8.87 SEC
 DISK USED  *       272.15 MB      
 **********************************************************************************************************************************

 Dump information in style XYZ to clh.xyz                                                                         


 **********************************************************************************************************************************


 PROGRAM * MATROP

 
 Density D read from record              6000.2  Type=MRCI/CHARGE (state 1.2)

 MATRIX D               

 SYMMETRY BLOCK 1.1
 
    1.99991423  -0.00004601  -0.00057505  -0.00001041   0.00039563  -0.00011141  -0.00002122   0.00937686   0.03160898  -0.00517060
   -0.01346683  -0.01446556  -0.00529355  -0.00013883   0.00000227  -0.00000982   0.00000778   0.00000828  -0.00000807  -0.00000682
    0.00000100  -0.00005824  -0.00000012  -0.00000336   0.00000110  -0.00000164   0.00000143  -0.00001929  -0.00000001   0.00000007
    0.00000350   0.00000001  -0.00000018   0.00000007   0.00000000  -0.00000235  -0.00034735  -0.00000319   0.00016910   0.00030222
    0.00004591   0.00000282  -0.00000185   0.00000221  -0.00007312   0.00000048   0.00000001  -0.00000384  -0.00000001  -0.00002270
   -0.00000017  -0.00000370  -0.00000003   0.00001499   0.00000011   0.00000145  -0.00000000   0.00000002
 
   -0.00004601   2.00399980   0.00858478   0.00209570   0.00048516  -0.01274084  -0.00280375  -0.02365339  -0.09491577   0.01521690
    0.03110765   0.03431069   0.01495216  -0.00217109   0.00002862  -0.00224461   0.00036503   0.00022425  -0.00004103  -0.00006123
    0.00003264  -0.00072544  -0.00004436  -0.00068563  -0.00004097  -0.00004428  -0.00001225  -0.00036821  -0.00000022  -0.00001299
   -0.00003809  -0.00000000  -0.00000755   0.00000180   0.00000006  -0.00007436  -0.01116279  -0.00053201   0.00525300   0.00582647
    0.00186122   0.00002468   0.00016778  -0.00204081  -0.00143754  -0.00005889  -0.00000044   0.00048847   0.00000079   0.00057095
   -0.00001297  -0.00005431  -0.00000030  -0.00013719   0.00000316   0.00001395   0.00000000  -0.00000015
 
   -0.00057505   0.00858478   2.06512942   0.00108893   0.04789263  -0.02458589  -0.13937578   0.00642708  -0.27694563  -0.00616059
   -0.00960753  -0.00024713   0.02809311  -0.00410979  -0.00274627   0.00224460   0.00691977   0.00015672   0.00013119   0.00034288
    0.00048018   0.00131228  -0.00080057   0.00147490  -0.00054411   0.00146195  -0.00041293   0.00111555  -0.00000733  -0.00025024
    0.00084590   0.00000012  -0.00005481   0.00006868   0.00000045   0.00039536   0.28660248  -0.00698010  -0.04023538  -0.14483332
   -0.05753996  -0.00145693  -0.00571350  -0.02041526  -0.00567083   0.00039889  -0.00001892   0.00283873   0.00009002   0.00353371
   -0.00014707  -0.00010266  -0.00000132  -0.00082772  -0.00002637   0.00003392  -0.00000001   0.00000253
 
   -0.00001041   0.00209570   0.00108893   0.00489412  -0.00482575  -0.00811535  -0.00074853   0.00414577  -0.00486834  -0.00007146
    0.00056580   0.00077645   0.00067900  -0.00031128  -0.00000686   0.00009967   0.00046846   0.00006279   0.00014638  -0.00000630
    0.00001921  -0.00017519   0.00001589  -0.00008033   0.00003162  -0.00005587   0.00001960  -0.00004782   0.00000022  -0.00000129
   -0.00000356  -0.00000030  -0.00000969   0.00000556   0.00000005  -0.00000158  -0.00387920   0.00007167   0.00070285   0.00196590
    0.00062381   0.00002004   0.00005000   0.00026935  -0.00013200  -0.00000068   0.00000054  -0.00005299  -0.00000094  -0.00012612
   -0.00000421  -0.00000432  -0.00000109   0.00005754   0.00000572  -0.00000057   0.00000000  -0.00000015
 
    0.00039563   0.00048516   0.04789263  -0.00482575   0.01489925  -0.00721396  -0.00727079  -0.00530227  -0.01269650   0.00045835
    0.00033161   0.00268141   0.00180728  -0.00038500   0.00056891  -0.00121957  -0.00047339  -0.00033171  -0.00060702  -0.00007412
    0.00005168  -0.00005139  -0.00004278  -0.00013113  -0.00006653   0.00017621   0.00000391  -0.00005249  -0.00000045  -0.00000825
    0.00000098   0.00000101   0.00002544  -0.00000689  -0.00000005  -0.00002208   0.00162437  -0.00023485   0.00026742  -0.00128950
   -0.00025882  -0.00002509  -0.00008504  -0.00085606  -0.00018963  -0.00000021  -0.00000163   0.00015505   0.00000784   0.00028670
    0.00002788   0.00000063   0.00000339  -0.00006901  -0.00002530  -0.00000603  -0.00000000   0.00000131
 
   -0.00011141  -0.01274084  -0.02458589  -0.00811535  -0.00721396   0.04555392   0.01547097   0.00192937  -0.01885762  -0.00306636
   -0.00646568  -0.00712220   0.00112149   0.00014686  -0.00090875  -0.00091092  -0.00052306  -0.00138639   0.00065807  -0.00055024
   -0.00013150   0.00063210  -0.00012347   0.00055505  -0.00025648  -0.00046275  -0.00026154   0.00037717  -0.00000016  -0.00001130
    0.00001090  -0.00000079  -0.00002661  -0.00001403  -0.00000006   0.00004306  -0.04449608   0.00054998  -0.00426215   0.00512192
    0.00747334   0.00006046   0.00023939   0.00426809   0.00372223   0.00000049  -0.00000022  -0.00050733  -0.00001184  -0.00098804
   -0.00006950   0.00006264  -0.00000185   0.00006799   0.00003257  -0.00000578   0.00000000  -0.00000325
 
   -0.00002122  -0.00280375  -0.13937578  -0.00074853  -0.00727079   0.01547097   0.01854391   0.00144208  -0.05557717  -0.00033990
   -0.00134622   0.00298279   0.00694503  -0.00236172  -0.00013809  -0.00383976  -0.00042722  -0.00178938   0.00019684  -0.00086466
   -0.00004919  -0.00055428  -0.00008646  -0.00049475  -0.00017131  -0.00053951  -0.00010339  -0.00015481   0.00000025  -0.00002455
   -0.00011810  -0.00000053  -0.00001948  -0.00001334  -0.00000011  -0.00008021  -0.09218246   0.00104983   0.00499998   0.02640369
    0.01614083   0.00025324   0.00086987   0.00498564   0.00297015  -0.00006106   0.00000008  -0.00055671  -0.00001338  -0.00113836
   -0.00006005   0.00004552  -0.00000058   0.00022520   0.00002568  -0.00002739  -0.00000000  -0.00000262
 
    0.00937686  -0.02365339   0.00642708   0.00414577  -0.00530227   0.00192937   0.00144208   2.01212463   0.03202181  -0.00737681
   -0.01537395  -0.01609479  -0.00593395   0.00119333   0.00006450   0.00009774  -0.00009262  -0.00090792   0.00000640   0.00094347
   -0.00000156   0.00062792  -0.00002933   0.00060204  -0.00004604   0.00014256  -0.00010969   0.00047702   0.00000006   0.00000628
    0.00011463  -0.00000002   0.00000507  -0.00000057   0.00000003   0.00018765  -0.00713624   0.00019804  -0.00428338  -0.00221693
    0.00133439  -0.00008833   0.00005617   0.00166936   0.00201052  -0.00001479   0.00000007  -0.00025506  -0.00000211  -0.00026368
   -0.00000421   0.00004832   0.00000012  -0.00001383   0.00000191   0.00009863   0.00000000  -0.00000001
 
    0.03160898  -0.09491577  -0.27694563  -0.00486834  -0.01269650  -0.01885762  -0.05557717   0.03202181   1.62773136  -0.02941377
   -0.02188167  -0.18771868  -0.21228041   0.05499233  -0.00060398   0.07581765  -0.00290470   0.02447435  -0.00070572   0.01369475
   -0.00033467   0.01214760   0.00278291   0.01543948   0.00352828   0.00543136   0.00111654   0.00508374   0.00000063   0.00074632
    0.00220865  -0.00000104   0.00032255   0.00014380  -0.00000275   0.00179014   1.13483828  -0.00616813  -0.09604007  -0.29402296
   -0.19173974  -0.00260053  -0.00893911  -0.02814753  -0.02152472   0.00116052   0.00002128   0.00095549   0.00009982   0.00527964
    0.00087772  -0.00040907  -0.00000932  -0.00093670  -0.00024960   0.00048376  -0.00000005   0.00003357
 
   -0.00517060   0.01521690  -0.00616059  -0.00007146   0.00045835  -0.00306636  -0.00033990  -0.00737681  -0.02941377   0.00636092
    0.00752946   0.00997722   0.00464039  -0.00100085   0.00001236  -0.00108511  -0.00000183   0.00050207   0.00001577   0.00002915
   -0.00000183  -0.00029984   0.00000991  -0.00069103   0.00007562   0.00005390   0.00007151  -0.00028614  -0.00000010  -0.00000231
   -0.00011008  -0.00000005  -0.00000190  -0.00000142   0.00000005  -0.00008513  -0.00364453  -0.00046120   0.00371191   0.00328013
    0.00065674   0.00001344   0.00017593  -0.00176815  -0.00118791  -0.00005313  -0.00000009   0.00034800   0.00000093   0.00059224
   -0.00000187  -0.00002081  -0.00000029  -0.00014319   0.00000012  -0.00000069  -0.00000000   0.00000037
 
   -0.01346683   0.03110765  -0.00960753   0.00056580   0.00033161  -0.00646568  -0.00134622  -0.01537395  -0.02188167   0.00752946
    0.02024216   0.01609664   0.00413282  -0.00044563  -0.00002875   0.00078818   0.00003683   0.00096823  -0.00011128   0.00019084
    0.00000315  -0.00023126   0.00006071  -0.00039616  -0.00011966   0.00010182   0.00003427  -0.00018807   0.00000002  -0.00000018
   -0.00002026  -0.00000003  -0.00000730   0.00000075  -0.00000025  -0.00005742   0.01058540  -0.00060626   0.00113725  -0.00083846
   -0.00173431  -0.00003427   0.00001213  -0.00159868  -0.00126541  -0.00001785   0.00000043   0.00024630   0.00000051   0.00044936
    0.00001606  -0.00002605   0.00000047  -0.00008058  -0.00000462   0.00000043  -0.00000000  -0.00000088
 
   -0.01446556   0.03431069  -0.00024713   0.00077645   0.00268141  -0.00712220   0.00298279  -0.01609479  -0.18771868   0.00997722
    0.01609664   0.03965081   0.02671068  -0.00573656  -0.00004789  -0.00728719   0.00006754  -0.00095114   0.00007941  -0.00118361
    0.00000099  -0.00142430  -0.00020327  -0.00258215  -0.00023950  -0.00042149   0.00004922  -0.00091334  -0.00000032  -0.00007849
   -0.00038632   0.00000003  -0.00004885  -0.00001920   0.00000007  -0.00030912  -0.09559312  -0.00033760   0.01343764   0.02997725
    0.01630884   0.00023378   0.00115305  -0.00015301  -0.00023017  -0.00018844  -0.00000150   0.00036592  -0.00000966   0.00046440
   -0.00009250   0.00000885  -0.00000086  -0.00011051   0.00003094  -0.00004375   0.00000001  -0.00000355
 
   -0.00529355   0.01495216   0.02809311   0.00067900   0.00180728   0.00112149   0.00694503  -0.00593395  -0.21228041   0.00464039
    0.00413282   0.02671068   0.02805042  -0.00710328   0.00007927  -0.00985384   0.00033213  -0.00302308   0.00008376  -0.00173588
    0.00004065  -0.00159095  -0.00034977  -0.00211644  -0.00043572  -0.00068143  -0.00012546  -0.00071296  -0.00000048  -0.00009644
   -0.00030654  -0.00000007  -0.00004060  -0.00001956   0.00000037  -0.00024905  -0.14394879   0.00071523   0.01303248   0.03826987
    0.02435057   0.00033688   0.00119459   0.00330625   0.00245228  -0.00015901  -0.00000273  -0.00007694  -0.00001250  -0.00057291
   -0.00011385   0.00004976   0.00000099   0.00010186   0.00003250  -0.00006289   0.00000001  -0.00000425
 
   -0.00013883  -0.00217109  -0.00410979  -0.00031128  -0.00038500   0.00014686  -0.00236172   0.00119333   0.05499233  -0.00100085
   -0.00044563  -0.00573656  -0.00710328   0.00351715   0.00018059   0.00564440   0.00009718   0.00154903   0.00001503   0.00068507
    0.00000799   0.00064551   0.00016076   0.00074119   0.00017591   0.00019239   0.00004575   0.00026832   0.00000023  -0.00001706
    0.00009771   0.00000009  -0.00001797   0.00000093  -0.00000028   0.00009462   0.04600842  -0.00012903  -0.00450648  -0.01294477
   -0.00781681  -0.00011247  -0.00038103  -0.00090837  -0.00058122   0.00005016   0.00000069   0.00000793   0.00000363   0.00014590
    0.00002074  -0.00001608  -0.00000059  -0.00004487  -0.00000470   0.00002610  -0.00000000   0.00000036
 
    0.00000227   0.00002862  -0.00274627  -0.00000686   0.00056891  -0.00090875  -0.00013809   0.00006450  -0.00060398   0.00001236
   -0.00002875  -0.00004789   0.00007927   0.00018059   0.00149086   0.00019040   0.00249110  -0.00000602   0.00059506   0.00001809
    0.00019504   0.00002394   0.00004865   0.00004535   0.00001462   0.00002175   0.00000006  -0.00002116  -0.00006366   0.00000878
   -0.00000808  -0.00002686  -0.00000323   0.00000716  -0.00000065  -0.00000009  -0.00092789   0.00002475   0.00013214   0.00039085
    0.00017970   0.00000304   0.00001166   0.00003999   0.00001351  -0.00000017   0.00000062  -0.00000867   0.00000892  -0.00001043
    0.00003585   0.00000034   0.00000019   0.00000512  -0.00001478  -0.00000031  -0.00000010   0.00000085
 
   -0.00000982  -0.00224461   0.00224460   0.00009967  -0.00121957  -0.00091092  -0.00383976   0.00009774   0.07581765  -0.00108511
    0.00078818  -0.00728719  -0.00985384   0.00564440   0.00019040   0.01130849   0.00054175   0.00312012   0.00008979   0.00112521
    0.00002940   0.00097333   0.00023655   0.00135368   0.00026681   0.00032852   0.00007354   0.00049592  -0.00000041  -0.00005375
    0.00019696  -0.00000073  -0.00006185   0.00000360  -0.00000036   0.00019493   0.07016446  -0.00009839  -0.00735979  -0.02039989
   -0.01196361  -0.00017875  -0.00066826  -0.00131377  -0.00084733   0.00008727   0.00000146   0.00002003   0.00000292   0.00020806
    0.00004292  -0.00003024  -0.00000000  -0.00009252  -0.00000927   0.00004893  -0.00000000  -0.00000007
 
    0.00000778   0.00036503   0.00691977   0.00046846  -0.00047339  -0.00052306  -0.00042722  -0.00009262  -0.00290470  -0.00000183
    0.00003683   0.00006754   0.00033213   0.00009718   0.00249110   0.00054175   0.00624315   0.00009319   0.00181931   0.00002272
    0.00035795   0.00004710   0.00005267   0.00011401  -0.00001763   0.00003154  -0.00004140  -0.00002451  -0.00013935   0.00002999
   -0.00001909  -0.00010620   0.00000623   0.00003172  -0.00000039   0.00000748   0.00007136   0.00000062  -0.00016694  -0.00018321
   -0.00005577  -0.00000288  -0.00001515   0.00003915  -0.00000847   0.00000273   0.00000142  -0.00000971   0.00001938  -0.00002364
    0.00005375  -0.00000052  -0.00000302   0.00000617  -0.00001701   0.00000088  -0.00000020   0.00000242
 
    0.00000828   0.00022425   0.00015672   0.00006279  -0.00033171  -0.00138639  -0.00178938  -0.00090792   0.02447435   0.00050207
    0.00096823  -0.00095114  -0.00302308   0.00154903  -0.00000602   0.00312012   0.00009319   0.00138717   0.00010563   0.00035335
   -0.00000581   0.00025991   0.00007627   0.00023042   0.00010752   0.00015000   0.00005537   0.00009372   0.00000020   0.00000504
    0.00003397  -0.00000024  -0.00001365   0.00000292  -0.00000007   0.00003867   0.02654018  -0.00021636  -0.00149042  -0.00682323
   -0.00450946  -0.00006351  -0.00019849  -0.00119640  -0.00078550   0.00001485   0.00000037   0.00013806   0.00000210   0.00031086
    0.00001574  -0.00001905  -0.00000043  -0.00008637  -0.00000384   0.00001859   0.00000000   0.00000086
 
   -0.00000807  -0.00004103   0.00013119   0.00014638  -0.00060702   0.00065807   0.00019684   0.00000640  -0.00070572   0.00001577
   -0.00011128   0.00007941   0.00008376   0.00001503   0.00059506   0.00008979   0.00181931   0.00010563   0.00084179  -0.00000449
    0.00006071   0.00003893   0.00000959   0.00001767  -0.00001126   0.00000534  -0.00002684   0.00000136  -0.00001521   0.00000598
   -0.00001333  -0.00003371   0.00000042   0.00000758   0.00000048   0.00000060  -0.00019073  -0.00001561  -0.00001475   0.00000691
    0.00002787  -0.00000025   0.00000804  -0.00001865   0.00000358  -0.00000258   0.00000080   0.00001031   0.00000219   0.00002006
    0.00000694  -0.00000013  -0.00000148  -0.00001253   0.00000239   0.00000147  -0.00000003   0.00000019
 
   -0.00000682  -0.00006123   0.00034288  -0.00000630  -0.00007412  -0.00055024  -0.00086466   0.00094347   0.01369475   0.00002915
    0.00019084  -0.00118361  -0.00173588   0.00068507   0.00001809   0.00112521   0.00002272   0.00035335  -0.00000449   0.00018079
    0.00000183   0.00011797   0.00003579   0.00013223   0.00004692   0.00006180   0.00001830   0.00004024   0.00000008  -0.00000097
    0.00001902  -0.00000006  -0.00000008   0.00000107  -0.00000004   0.00001703   0.01290130  -0.00007112  -0.00080064  -0.00337910
   -0.00219889  -0.00003050  -0.00010222  -0.00049132  -0.00032980   0.00000987   0.00000021   0.00004011   0.00000094   0.00010569
    0.00000817  -0.00000575  -0.00000003  -0.00002215  -0.00000229   0.00000543  -0.00000000   0.00000018
 
    0.00000100   0.00003264   0.00048018   0.00001921   0.00005168  -0.00013150  -0.00004919  -0.00000156  -0.00033467  -0.00000183
    0.00000315   0.00000099   0.00004065   0.00000799   0.00019504   0.00002940   0.00035795  -0.00000581   0.00006071   0.00000183
    0.00003353   0.00000155   0.00000349   0.00000981  -0.00000280   0.00000330  -0.00000116  -0.00000372  -0.00001124  -0.00000022
   -0.00000024  -0.00000271  -0.00000123   0.00000076  -0.00000009   0.00000019  -0.00012120   0.00000319   0.00000248   0.00002801
    0.00001799   0.00000017  -0.00000076   0.00000952   0.00000204   0.00000037  -0.00000000  -0.00000229   0.00000149  -0.00000506
    0.00000444   0.00000006   0.00000008   0.00000211  -0.00000232  -0.00000017  -0.00000002   0.00000011
 
   -0.00005824  -0.00072544   0.00131228  -0.00017519  -0.00005139   0.00063210  -0.00055428   0.00062792   0.01214760  -0.00029984
   -0.00023126  -0.00142430  -0.00159095   0.00064551   0.00002394   0.00097333   0.00004710   0.00025991   0.00003893   0.00011797
    0.00000155   0.00025726   0.00004193   0.00031682   0.00004256   0.00008111   0.00000257   0.00008704  -0.00000047  -0.00000257
    0.00002433  -0.00000023  -0.00000746  -0.00000241  -0.00000008   0.00002404   0.00953621  -0.00003036  -0.00125005  -0.00289969
   -0.00162498  -0.00002517  -0.00009202  -0.00010796  -0.00003674   0.00001244   0.00000020  -0.00000255  -0.00000013   0.00001919
   -0.00000343  -0.00000295  -0.00000038  -0.00001345   0.00000267   0.00000613  -0.00000000  -0.00000029
 
   -0.00000012  -0.00004436  -0.00080057   0.00001589  -0.00004278  -0.00012347  -0.00008646  -0.00002933   0.00278291   0.00000991
    0.00006071  -0.00020327  -0.00034977   0.00016076   0.00004865   0.00023655   0.00005267   0.00007627   0.00000959   0.00003579
    0.00000349   0.00004193   0.00012438   0.00004582   0.00015943   0.00001103   0.00005470   0.00000575  -0.00000271   0.00001109
   -0.00000108  -0.00000132  -0.00000092   0.00000052  -0.00000289   0.00000121   0.00222161  -0.00002051  -0.00019275  -0.00055715
   -0.00037613  -0.00000528  -0.00001367  -0.00005782  -0.00005248   0.00000191   0.00000050   0.00000136   0.00000184   0.00001260
    0.00001288  -0.00000084  -0.00000009  -0.00000166  -0.00000375   0.00000089  -0.00000008   0.00000027
 
   -0.00000336  -0.00068563   0.00147490  -0.00008033  -0.00013113   0.00055505  -0.00049475   0.00060204   0.01543948  -0.00069103
   -0.00039616  -0.00258215  -0.00211644   0.00074119   0.00004535   0.00135368   0.00011401   0.00023042   0.00001767   0.00013223
    0.00000981   0.00031682   0.00004582   0.00079717   0.00010743   0.00019872   0.00001311   0.00015141  -0.00000025  -0.00000076
    0.00006911  -0.00000012  -0.00000704  -0.00001001  -0.00000014   0.00005378   0.01025626   0.00007800  -0.00188097  -0.00347198
   -0.00175461  -0.00002754  -0.00015484   0.00016130   0.00012900   0.00002386   0.00000042  -0.00003837  -0.00000075  -0.00007722
   -0.00000028  -0.00000450  -0.00000029  -0.00000277   0.00000208   0.00001038  -0.00000000  -0.00000032
 
    0.00000110  -0.00004097  -0.00054411   0.00003162  -0.00006653  -0.00025648  -0.00017131  -0.00004604   0.00352828   0.00007562
   -0.00011966  -0.00023950  -0.00043572   0.00017591   0.00001462   0.00026681  -0.00001763   0.00010752  -0.00001126   0.00004692
   -0.00000280   0.00004256   0.00015943   0.00010743   0.00048362   0.00004326   0.00016766   0.00000257  -0.00000177   0.00001860
    0.00000008  -0.00000128   0.00000726   0.00001088  -0.00001551  -0.00000219   0.00315146  -0.00003947  -0.00017881  -0.00073414
   -0.00053747  -0.00000719  -0.00001927  -0.00013663  -0.00011435   0.00000153   0.00000016   0.00001417   0.00000988   0.00003452
    0.00002338  -0.00000223  -0.00000180  -0.00000744  -0.00001119   0.00000178  -0.00000018   0.00000310
 
   -0.00000164  -0.00004428   0.00146195  -0.00005587   0.00017621  -0.00046275  -0.00053951   0.00014256   0.00543136   0.00005390
    0.00010182  -0.00042149  -0.00068143   0.00019239   0.00002175   0.00032852   0.00003154   0.00015000   0.00000534   0.00006180
    0.00000330   0.00008111   0.00001103   0.00019872   0.00004326   0.00019240   0.00004545   0.00001395  -0.00000014  -0.00000377
    0.00001876  -0.00000004   0.00000004  -0.00000349  -0.00000006   0.00001008   0.00556597  -0.00003920  -0.00030545  -0.00144496
   -0.00095119  -0.00001353  -0.00006073  -0.00028617  -0.00018081   0.00000518  -0.00000015   0.00003999   0.00000107   0.00006876
    0.00000134  -0.00000584  -0.00000008  -0.00001897  -0.00000151   0.00000469  -0.00000000   0.00000039
 
    0.00000143  -0.00001225  -0.00041293   0.00001960   0.00000391  -0.00026154  -0.00010339  -0.00010969   0.00111654   0.00007151
    0.00003427   0.00004922  -0.00012546   0.00004575   0.00000006   0.00007354  -0.00004140   0.00005537  -0.00002684   0.00001830
   -0.00000116   0.00000257   0.00005470   0.00001311   0.00016766   0.00004545   0.00015898  -0.00001235  -0.00000071  -0.00000006
   -0.00000244  -0.00000019   0.00000090   0.00000314  -0.00000461  -0.00000354   0.00133423  -0.00002957   0.00003986  -0.00023234
   -0.00022522  -0.00000294  -0.00000481  -0.00012059  -0.00009209  -0.00000057  -0.00000010   0.00001628   0.00000317   0.00003442
    0.00000486  -0.00000145  -0.00000073  -0.00000690  -0.00000324   0.00000062   0.00000002   0.00000130
 
   -0.00001929  -0.00036821   0.00111555  -0.00004782  -0.00005249   0.00037717  -0.00015481   0.00047702   0.00508374  -0.00028614
   -0.00018807  -0.00091334  -0.00071296   0.00026832  -0.00002116   0.00049592  -0.00002451   0.00009372   0.00000136   0.00004024
   -0.00000372   0.00008704   0.00000575   0.00015141   0.00000257   0.00001395  -0.00001235   0.00013127   0.00000048   0.00002971
    0.00005488   0.00000018   0.00000962   0.00000207  -0.00000002   0.00002709   0.00341290   0.00004863  -0.00069764  -0.00128986
   -0.00058418  -0.00000908  -0.00005922   0.00007754   0.00008633   0.00000838   0.00000053  -0.00001035  -0.00000107  -0.00002412
    0.00000402  -0.00000131  -0.00000006  -0.00000645   0.00000058   0.00000409  -0.00000000  -0.00000026
 
   -0.00000001  -0.00000022  -0.00000733   0.00000022  -0.00000045  -0.00000016   0.00000025   0.00000006   0.00000063  -0.00000010
    0.00000002  -0.00000032  -0.00000048   0.00000023  -0.00006366  -0.00000041  -0.00013935   0.00000020  -0.00001521   0.00000008
   -0.00001124  -0.00000047  -0.00000271  -0.00000025  -0.00000177  -0.00000014  -0.00000071   0.00000048   0.00007149   0.00001152
    0.00000026   0.00003209   0.00000556   0.00000019  -0.00000001   0.00000002   0.00000295   0.00000015   0.00000085  -0.00000051
   -0.00000037   0.00000000  -0.00000001  -0.00000013   0.00000008  -0.00000000   0.00000008   0.00000004  -0.00000041   0.00000003
    0.00000042  -0.00000000  -0.00000010  -0.00000003   0.00000029   0.00000000   0.00000015   0.00000010
 
    0.00000007  -0.00001299  -0.00025024  -0.00000129  -0.00000825  -0.00001130  -0.00002455   0.00000628   0.00074632  -0.00000231
   -0.00000018  -0.00007849  -0.00009644  -0.00001706   0.00000878  -0.00005375   0.00002999   0.00000504   0.00000598  -0.00000097
   -0.00000022  -0.00000257   0.00001109  -0.00000076   0.00001860  -0.00000377  -0.00000006   0.00002971   0.00001152   0.00008084
    0.00001290   0.00000475   0.00003601   0.00000762  -0.00000073   0.00000246   0.00047097  -0.00000149  -0.00002146  -0.00012084
   -0.00007859  -0.00000083  -0.00000412  -0.00001564  -0.00000711   0.00000034   0.00000034   0.00000273   0.00000399   0.00000358
    0.00001538  -0.00000029  -0.00000075  -0.00000133  -0.00000568   0.00000010  -0.00000013   0.00000138
 
    0.00000350  -0.00003809   0.00084590  -0.00000356   0.00000098   0.00001090  -0.00011810   0.00011463   0.00220865  -0.00011008
   -0.00002026  -0.00038632  -0.00030654   0.00009771  -0.00000808   0.00019696  -0.00001909   0.00003397  -0.00001333   0.00001902
   -0.00000024   0.00002433  -0.00000108   0.00006911   0.00000008   0.00001876  -0.00000244   0.00005488   0.00000026   0.00001290
    0.00006829   0.00000013   0.00001606   0.00000184  -0.00000000   0.00001548   0.00175581   0.00003959  -0.00029430  -0.00061852
   -0.00030428  -0.00000397  -0.00003932   0.00002082   0.00001910   0.00000564   0.00000015  -0.00000279   0.00000021  -0.00001342
    0.00000298  -0.00000182  -0.00000001  -0.00000100  -0.00000081   0.00000260   0.00000000  -0.00000006
 
    0.00000001  -0.00000000   0.00000012  -0.00000030   0.00000101  -0.00000079  -0.00000053  -0.00000002  -0.00000104  -0.00000005
   -0.00000003   0.00000003  -0.00000007   0.00000009  -0.00002686  -0.00000073  -0.00010620  -0.00000024  -0.00003371  -0.00000006
   -0.00000271  -0.00000023  -0.00000132  -0.00000012  -0.00000128  -0.00000004  -0.00000019   0.00000018   0.00003209   0.00000475
    0.00000013   0.00004988   0.00000660  -0.00000021  -0.00000131  -0.00000000   0.00000061   0.00000007   0.00000052  -0.00000008
   -0.00000002   0.00000000  -0.00000001  -0.00000012   0.00000004   0.00000000  -0.00000003   0.00000002  -0.00000001   0.00000002
    0.00000029   0.00000000   0.00000006  -0.00000001  -0.00000043  -0.00000000   0.00000006   0.00000005
 
   -0.00000018  -0.00000755  -0.00005481  -0.00000969   0.00002544  -0.00002661  -0.00001948   0.00000507   0.00032255  -0.00000190
   -0.00000730  -0.00004885  -0.00004060  -0.00001797  -0.00000323  -0.00006185   0.00000623  -0.00001365   0.00000042  -0.00000008
   -0.00000123  -0.00000746  -0.00000092  -0.00000704   0.00000726   0.00000004   0.00000090   0.00000962   0.00000556   0.00003601
    0.00001606   0.00000660   0.00005596   0.00000607  -0.00000000   0.00000130   0.00019344   0.00000160   0.00000972  -0.00004084
   -0.00003291  -0.00000028  -0.00000303  -0.00001302  -0.00000802   0.00000033  -0.00000026   0.00000150   0.00000517   0.00000185
    0.00000803  -0.00000007  -0.00000106   0.00000026  -0.00000547  -0.00000021  -0.00000004   0.00000182
 
    0.00000007   0.00000180   0.00006868   0.00000556  -0.00000689  -0.00001403  -0.00001334  -0.00000057   0.00014380  -0.00000142
    0.00000075  -0.00001920  -0.00001956   0.00000093   0.00000716   0.00000360   0.00003172   0.00000292   0.00000758   0.00000107
    0.00000076  -0.00000241   0.00000052  -0.00001001   0.00001088  -0.00000349   0.00000314   0.00000207   0.00000019   0.00000762
    0.00000184  -0.00000021   0.00000607   0.00002193   0.00000270   0.00000611   0.00013087   0.00000067  -0.00000829  -0.00003282
   -0.00002265  -0.00000033  -0.00000120  -0.00000418  -0.00000520   0.00000011  -0.00000006   0.00000002   0.00000352   0.00000181
    0.00000690   0.00000006  -0.00000053  -0.00000048  -0.00000364   0.00000005  -0.00000004   0.00000081
 
    0.00000000   0.00000006   0.00000045   0.00000005  -0.00000005  -0.00000006  -0.00000011   0.00000003  -0.00000275   0.00000005
   -0.00000025   0.00000007   0.00000037  -0.00000028  -0.00000065  -0.00000036  -0.00000039  -0.00000007   0.00000048  -0.00000004
   -0.00000009  -0.00000008  -0.00000289  -0.00000014  -0.00001551  -0.00000006  -0.00000461  -0.00000002  -0.00000001  -0.00000073
   -0.00000000  -0.00000131  -0.00000000   0.00000270   0.00001900   0.00000001  -0.00000197  -0.00000001   0.00000045   0.00000079
    0.00000034   0.00000001   0.00000003  -0.00000003  -0.00000002  -0.00000001  -0.00000003   0.00000002   0.00000009   0.00000003
    0.00000047   0.00000000   0.00000007  -0.00000001  -0.00000031   0.00000000   0.00000019  -0.00000005
 
   -0.00000235  -0.00007436   0.00039536  -0.00000158  -0.00002208   0.00004306  -0.00008021   0.00018765   0.00179014  -0.00008513
   -0.00005742  -0.00030912  -0.00024905   0.00009462  -0.00000009   0.00019493   0.00000748   0.00003867   0.00000060   0.00001703
    0.00000019   0.00002404   0.00000121   0.00005378  -0.00000219   0.00001008  -0.00000354   0.00002709   0.00000002   0.00000246
    0.00001548  -0.00000000   0.00000130   0.00000611   0.00000001   0.00002908   0.00133932   0.00001930  -0.00022626  -0.00045877
   -0.00022942  -0.00000347  -0.00002224   0.00000906   0.00000894   0.00000284   0.00000009  -0.00000077   0.00000002  -0.00000143
    0.00000253  -0.00000116   0.00000017  -0.00000464  -0.00000068   0.00000238   0.00000000  -0.00000017
 
   -0.00034735  -0.01116279   0.28660248  -0.00387920   0.00162437  -0.04449608  -0.09218246  -0.00713624   1.13483828  -0.00364453
    0.01058540  -0.09559312  -0.14394879   0.04600842  -0.00092789   0.07016446   0.00007136   0.02654018  -0.00019073   0.01290130
   -0.00012120   0.00953621   0.00222161   0.01025626   0.00315146   0.00556597   0.00133423   0.00341290   0.00000295   0.00047097
    0.00175581   0.00000061   0.00019344   0.00013087  -0.00000197   0.00133932   1.13587972  -0.00639012  -0.06854308  -0.30175734
   -0.19472700  -0.00270289  -0.00936464  -0.04588758  -0.03042041   0.00084524   0.00001441   0.00406621   0.00010391   0.00994799
    0.00069363  -0.00050966  -0.00000907  -0.00200666  -0.00020714   0.00043063  -0.00000003   0.00002656
 
   -0.00000319  -0.00053201  -0.00698010   0.00007167  -0.00023485   0.00054998   0.00104983   0.00019804  -0.00616813  -0.00046120
   -0.00060626  -0.00033760   0.00071523  -0.00012903   0.00002475  -0.00009839   0.00000062  -0.00021636  -0.00001561  -0.00007112
    0.00000319  -0.00003036  -0.00002051   0.00007800  -0.00003947  -0.00003920  -0.00002957   0.00004863   0.00000015  -0.00000149
    0.00003959   0.00000007   0.00000160   0.00000067  -0.00000001   0.00001930  -0.00639012   0.00056458   0.00003319   0.00126430
    0.00109738   0.00002636  -0.00008906   0.00064357   0.00040937   0.00001752  -0.00000094  -0.00007024   0.00000409  -0.00019351
    0.00000475  -0.00000055  -0.00000015   0.00002983  -0.00000521   0.00000302   0.00000000   0.00000115
 
    0.00016910   0.00525300  -0.04023538   0.00070285   0.00026742  -0.00426215   0.00499998  -0.00428338  -0.09604007   0.00371191
    0.00113725   0.01343764   0.01303248  -0.00450648   0.00013214  -0.00735979  -0.00016694  -0.00149042  -0.00001475  -0.00080064
    0.00000248  -0.00125005  -0.00019275  -0.00188097  -0.00017881  -0.00030545   0.00003986  -0.00069764   0.00000085  -0.00002146
   -0.00029430   0.00000052   0.00000972  -0.00000829   0.00000045  -0.00022626  -0.06854308   0.00003319   0.01281690   0.02286524
    0.01186169   0.00019894   0.00083327  -0.00102426  -0.00059405  -0.00014553  -0.00000054   0.00034374  -0.00001346   0.00049681
   -0.00003809   0.00001056   0.00000226  -0.00007690   0.00001190  -0.00004076   0.00000001  -0.00000162
 
    0.00030222   0.00582647  -0.14483332   0.00196590  -0.00128950   0.00512192   0.02640369  -0.00221693  -0.29402296   0.00328013
   -0.00083846   0.02997725   0.03826987  -0.01294477   0.00039085  -0.02039989  -0.00018321  -0.00682323   0.00000691  -0.00337910
    0.00002801  -0.00289969  -0.00055715  -0.00347198  -0.00073414  -0.00144496  -0.00023234  -0.00128986  -0.00000051  -0.00012084
   -0.00061852  -0.00000008  -0.00004084  -0.00003282   0.00000079  -0.00045877  -0.30175734   0.00126430   0.02286524   0.08626244
    0.05202874   0.00076490   0.00284218   0.01097642   0.00658252  -0.00028018  -0.00000368  -0.00092367  -0.00002834  -0.00220952
   -0.00017211   0.00012797   0.00000291   0.00049016   0.00005047  -0.00012478   0.00000001  -0.00000620
 
    0.00004591   0.00186122  -0.05753996   0.00062381  -0.00025882   0.00747334   0.01614083   0.00133439  -0.19173974   0.00065674
   -0.00173431   0.01630884   0.02435057  -0.00781681   0.00017970  -0.01196361  -0.00005577  -0.00450946   0.00002787  -0.00219889
    0.00001799  -0.00162498  -0.00037613  -0.00175461  -0.00053747  -0.00095119  -0.00022522  -0.00058418  -0.00000037  -0.00007859
   -0.00030428  -0.00000002  -0.00003291  -0.00002265   0.00000034  -0.00022942  -0.19472700   0.00109738   0.01186169   0.05202874
    0.03343129   0.00046587   0.00162223   0.00786593   0.00520222  -0.00014670  -0.00000234  -0.00069626  -0.00001828  -0.00168917
   -0.00011590   0.00008722   0.00000165   0.00033799   0.00003492  -0.00007304   0.00000001  -0.00000453
 
    0.00000282   0.00002468  -0.00145693   0.00002004  -0.00002509   0.00006046   0.00025324  -0.00008833  -0.00260053   0.00001344
   -0.00003427   0.00023378   0.00033688  -0.00011247   0.00000304  -0.00017875  -0.00000288  -0.00006351  -0.00000025  -0.00003050
    0.00000017  -0.00002517  -0.00000528  -0.00002754  -0.00000719  -0.00001353  -0.00000294  -0.00000908   0.00000000  -0.00000083
   -0.00000397   0.00000000  -0.00000028  -0.00000033   0.00000001  -0.00000347  -0.00270289   0.00002636   0.00019894   0.00076490
    0.00046587   0.00000862   0.00002232   0.00011137   0.00006604  -0.00000229  -0.00000008  -0.00000881  -0.00000003  -0.00002421
   -0.00000121   0.00000080   0.00000002   0.00000438   0.00000016  -0.00000064   0.00000000   0.00000003
 
   -0.00000185   0.00016778  -0.00571350   0.00005000  -0.00008504   0.00023939   0.00086987   0.00005617  -0.00893911   0.00017593
    0.00001213   0.00115305   0.00119459  -0.00038103   0.00001166  -0.00066826  -0.00001515  -0.00019849   0.00000804  -0.00010222
   -0.00000076  -0.00009202  -0.00001367  -0.00015484  -0.00001927  -0.00006073  -0.00000481  -0.00005922  -0.00000001  -0.00000412
   -0.00003932  -0.00000001  -0.00000303  -0.00000120   0.00000003  -0.00002224  -0.00936464  -0.00008906   0.00083327   0.00284218
    0.00162223   0.00002232   0.00016647   0.00031541   0.00016949  -0.00001958   0.00000030  -0.00004461  -0.00000290  -0.00005332
   -0.00000758   0.00001013   0.00000019   0.00002057   0.00000409  -0.00000822   0.00000000  -0.00000083
 
    0.00000221  -0.00204081  -0.02041526   0.00026935  -0.00085606   0.00426809   0.00498564   0.00166936  -0.02814753  -0.00176815
   -0.00159868  -0.00015301   0.00330625  -0.00090837   0.00003999  -0.00131377   0.00003915  -0.00119640  -0.00001865  -0.00049132
    0.00000952  -0.00010796  -0.00005782   0.00016130  -0.00013663  -0.00028617  -0.00012059   0.00007754  -0.00000013  -0.00001564
    0.00002082  -0.00000012  -0.00001302  -0.00000418  -0.00000003   0.00000906  -0.04588758   0.00064357  -0.00102426   0.01097642
    0.00786593   0.00011137   0.00031541   0.00421231   0.00245896   0.00001563  -0.00000075  -0.00058541   0.00000017  -0.00112131
   -0.00002019   0.00003884  -0.00000049   0.00024775   0.00000456  -0.00001609  -0.00000000  -0.00000030
 
   -0.00007312  -0.00143754  -0.00567083  -0.00013200  -0.00018963   0.00372223   0.00297015   0.00201052  -0.02152472  -0.00118791
   -0.00126541  -0.00023017   0.00245228  -0.00058122   0.00001351  -0.00084733  -0.00000847  -0.00078550   0.00000358  -0.00032980
    0.00000204  -0.00003674  -0.00005248   0.00012900  -0.00011435  -0.00018081  -0.00009209   0.00008633   0.00000008  -0.00000711
    0.00001910   0.00000004  -0.00000802  -0.00000520  -0.00000002   0.00000894  -0.03042041   0.00040937  -0.00059405   0.00658252
    0.00520222   0.00006604   0.00016949   0.00245896   0.00165504   0.00000761  -0.00000020  -0.00030976  -0.00000192  -0.00064325
   -0.00001695   0.00002114  -0.00000028   0.00012525   0.00000576  -0.00000728   0.00000000  -0.00000064
 
    0.00000048  -0.00005889   0.00039889  -0.00000068  -0.00000021   0.00000049  -0.00006106  -0.00001479   0.00116052  -0.00005313
   -0.00001785  -0.00018844  -0.00015901   0.00005016  -0.00000017   0.00008727   0.00000273   0.00001485  -0.00000258   0.00000987
    0.00000037   0.00001244   0.00000191   0.00002386   0.00000153   0.00000518  -0.00000057   0.00000838  -0.00000000   0.00000034
    0.00000564   0.00000000   0.00000033   0.00000011  -0.00000001   0.00000284   0.00084524   0.00001752  -0.00014553  -0.00028018
   -0.00014670  -0.00000229  -0.00001958   0.00001563   0.00000761   0.00000443  -0.00000002  -0.00000350   0.00000036  -0.00001038
    0.00000075  -0.00000146  -0.00000005   0.00000228  -0.00000044   0.00000100  -0.00000000   0.00000011
 
    0.00000001  -0.00000044  -0.00001892   0.00000054  -0.00000163  -0.00000022   0.00000008   0.00000007   0.00002128  -0.00000009
    0.00000043  -0.00000150  -0.00000273   0.00000069   0.00000062   0.00000146   0.00000142   0.00000037   0.00000080   0.00000021
   -0.00000000   0.00000020   0.00000050   0.00000042   0.00000016  -0.00000015  -0.00000010   0.00000053   0.00000008   0.00000034
    0.00000015  -0.00000003  -0.00000026  -0.00000006  -0.00000003   0.00000009   0.00001441  -0.00000094  -0.00000054  -0.00000368
   -0.00000234  -0.00000008   0.00000030  -0.00000075  -0.00000020  -0.00000002   0.00000110  -0.00000002  -0.00000045   0.00000014
   -0.00000064   0.00000001  -0.00000036   0.00000004   0.00000095  -0.00000003   0.00000001  -0.00000011
 
   -0.00000384   0.00048847   0.00283873  -0.00005299   0.00015505  -0.00050733  -0.00055671  -0.00025506   0.00095549   0.00034800
    0.00024630   0.00036592  -0.00007694   0.00000793  -0.00000867   0.00002003  -0.00000971   0.00013806   0.00001031   0.00004011
   -0.00000229  -0.00000255   0.00000136  -0.00003837   0.00001417   0.00003999   0.00001628  -0.00001035   0.00000004   0.00000273
   -0.00000279   0.00000002   0.00000150   0.00000002   0.00000002  -0.00000077   0.00406621  -0.00007024   0.00034374  -0.00092367
   -0.00069626  -0.00000881  -0.00004461  -0.00058541  -0.00030976  -0.00000350  -0.00000002   0.00011274   0.00000055   0.00017463
    0.00000196  -0.00001040  -0.00000001  -0.00005151  -0.00000077   0.00000573   0.00000000   0.00000018
 
   -0.00000001   0.00000079   0.00009002  -0.00000094   0.00000784  -0.00001184  -0.00001338  -0.00000211   0.00009982   0.00000093
    0.00000051  -0.00000966  -0.00001250   0.00000363   0.00000892   0.00000292   0.00001938   0.00000210   0.00000219   0.00000094
    0.00000149  -0.00000013   0.00000184  -0.00000075   0.00000988   0.00000107   0.00000317  -0.00000107  -0.00000041   0.00000399
    0.00000021  -0.00000001   0.00000517   0.00000352   0.00000009   0.00000002   0.00010391   0.00000409  -0.00001346  -0.00002834
   -0.00001828  -0.00000003  -0.00000290   0.00000017  -0.00000192   0.00000036  -0.00000045   0.00000055   0.00001530  -0.00000003
    0.00001062  -0.00000027  -0.00000260  -0.00000043  -0.00001025   0.00000027  -0.00000002   0.00000297
 
   -0.00002270   0.00057095   0.00353371  -0.00012612   0.00028670  -0.00098804  -0.00113836  -0.00026368   0.00527964   0.00059224
    0.00044936   0.00046440  -0.00057291   0.00014590  -0.00001043   0.00020806  -0.00002364   0.00031086   0.00002006   0.00010569
   -0.00000506   0.00001919   0.00001260  -0.00007722   0.00003452   0.00006876   0.00003442  -0.00002412   0.00000003   0.00000358
   -0.00001342   0.00000002   0.00000185   0.00000181   0.00000003  -0.00000143   0.00994799  -0.00019351   0.00049681  -0.00220952
   -0.00168917  -0.00002421  -0.00005332  -0.00112131  -0.00064325  -0.00001038   0.00000014   0.00017463  -0.00000003   0.00033532
    0.00000564  -0.00000983   0.00000027  -0.00008489  -0.00000127   0.00000492   0.00000000  -0.00000007
 
   -0.00000017  -0.00001297  -0.00014707  -0.00000421   0.00002788  -0.00006950  -0.00006005  -0.00000421   0.00087772  -0.00000187
    0.00001606  -0.00009250  -0.00011385   0.00002074   0.00003585   0.00004292   0.00005375   0.00001574   0.00000694   0.00000817
    0.00000444  -0.00000343   0.00001288  -0.00000028   0.00002338   0.00000134   0.00000486   0.00000402   0.00000042   0.00001538
    0.00000298   0.00000029   0.00000803   0.00000690   0.00000047   0.00000253   0.00069363   0.00000475  -0.00003809  -0.00017211
   -0.00011590  -0.00000121  -0.00000758  -0.00002019  -0.00001695   0.00000075  -0.00000064   0.00000196   0.00001062   0.00000564
    0.00002992  -0.00000024  -0.00000005  -0.00000241  -0.00001467   0.00000049  -0.00000005   0.00000171
 
   -0.00000370  -0.00005431  -0.00010266  -0.00000432   0.00000063   0.00006264   0.00004552   0.00004832  -0.00040907  -0.00002081
   -0.00002605   0.00000885   0.00004976  -0.00001608   0.00000034  -0.00003024  -0.00000052  -0.00001905  -0.00000013  -0.00000575
    0.00000006  -0.00000295  -0.00000084  -0.00000450  -0.00000223  -0.00000584  -0.00000145  -0.00000131  -0.00000000  -0.00000029
   -0.00000182   0.00000000  -0.00000007   0.00000006   0.00000000  -0.00000116  -0.00050966  -0.00000055   0.00001056   0.00012797
    0.00008722   0.00000080   0.00001013   0.00003884   0.00002114  -0.00000146   0.00000001  -0.00001040  -0.00000027  -0.00000983
   -0.00000024   0.00000297   0.00000008   0.00000428   0.00000018  -0.00000195  -0.00000000  -0.00000010
 
[...]
    0.00000000   0.00000000   0.00000000   0.17745079  -0.67123841   0.00000000  -0.20108760  -0.43547745  -2.54687401   0.00000000
    0.00000000  -0.00803084   0.13464156   0.65687772   0.46373719   0.21375251
 
    0.00069964   0.00153085  -0.00168608   0.03234243  -0.03960800   0.00000000   0.06661954   0.03222679  -0.11501269   0.01538217
    0.06990810   0.00000000   0.00000000   0.00850608   0.11257084   0.00000000  -0.08949839  -0.08373220  -0.01645744   0.01250040
    0.00000000   0.00000000   0.00000000   0.02365908  -0.04858193   0.00000000  -0.07563251  -0.29570931   1.64913264   0.00000000
    0.00000000   0.06896332  -0.12948469  -0.10764645  -0.13792716  -0.05785018
 
    0.00012674   0.00250947  -0.03391619  -0.16525702  -0.50425210   0.00000000   1.21472331   0.71052317   1.70913310   0.12775962
    1.80445017   0.00000000   0.00000000  -1.42585300   1.71930024   0.00000000   0.45638133   0.65292780  -0.51515060  -0.75912393
    0.00000000   0.00000000   0.00000000   0.56967530   1.43250512   0.00000000   0.80152488   0.14063569   0.59187003   0.00000000
    0.00000000  -0.18162556   0.30651956  -0.13316591  -0.61606001  -0.18347510
 
    0.00000000   0.00000000   0.00000000   0.00000000   0.00000000   1.25062241   0.00000000   0.00000000   0.00000000   0.00000000
    0.00000000  -0.06882087  -1.04568169   0.00000000   0.00000000  -0.14754360   0.00000000   0.00000000   0.00000000   0.00000000
    0.00000000   0.70554128  -0.03398762   0.00000000   0.00000000  -0.01919145   0.00000000   0.00000000   0.00000000   0.06481157
    0.01526887   0.00000000   0.00000000   0.00000000   0.00000000   0.00000000
 
   -0.00004579   0.00254262  -0.04267888   0.04417107  -0.16015288   0.00000000  -0.43271535   0.12272249   0.07014492   0.62642661
   -0.14556301   0.00000000   0.00000000   1.55077882   1.31670291   0.00000000   0.26450506  -0.67064995  -1.45919892   0.37164161
    0.00000000   0.00000000   0.00000000  -2.11751501   1.27794788   0.00000000   0.73995141   2.51109358   1.61438822   0.00000000
    0.00000000  -0.07136490   0.17810514  -1.84613731  -0.88818895  -0.47249318
 
    0.00000000   0.00000000   0.00000000   0.00000000   0.00000000  -0.42334181   0.00000000   0.00000000   0.00000000   0.00000000
    0.00000000   0.06538155   1.70933910   0.00000000   0.00000000  -0.01712551   0.00000000   0.00000000   0.00000000   0.00000000
    0.00000000  -1.81140183   0.20225104   0.00000000   0.00000000   0.00538206   0.00000000   0.00000000   0.00000000  -0.04811875
    0.07232459   0.00000000   0.00000000   0.00000000   0.00000000   0.00000000
 
    0.00022481   0.00097892   0.00790316  -0.01040957   0.03179539   0.00000000   0.14272318  -0.00551417   0.01916348  -0.10807011
    0.00458680   0.00000000   0.00000000  -0.14816575  -0.19919834   0.00000000   0.01740460   0.17952127   0.19082630  -0.05459855
    0.00000000   0.00000000   0.00000000   1.73605031   0.16811934   0.00000000  -0.39045250  -0.65246930  -0.37749521   0.00000000
    0.00000000  -0.03501522   0.19238386   0.09350685   0.04941870   0.07959835
 
    0.00000000   0.00000000   0.00000000   0.00000000   0.00000000   0.14780671   0.00000000   0.00000000   0.00000000   0.00000000
    0.00000000  -0.00999679  -0.19624916   0.00000000   0.00000000  -0.00284635   0.00000000   0.00000000   0.00000000   0.00000000
    0.00000000   1.74759219  -0.19915579   0.00000000   0.00000000  -0.00921387   0.00000000   0.00000000   0.00000000   0.02370616
   -0.03511605   0.00000000   0.00000000   0.00000000   0.00000000   0.00000000
 
    0.00014470   0.00020764  -0.03154508  -0.02070000  -0.23885122   0.00000000  -0.01915579   0.22517860   0.40393487   0.45752460
    0.13886541   0.00000000   0.00000000  -0.61371330   1.95476241   0.00000000   0.43928547   0.32466742  -0.58392509   0.18001662
    0.00000000   0.00000000   0.00000000  -0.22220738   1.34399949   0.00000000   1.35469741   0.74804988   0.90896609   0.00000000
    0.00000000  -0.10835530  -0.00467820  -0.70808619  -0.56012324  -0.26408675
 
    0.00000000   0.00000000   0.00000000   0.00000000   0.00000000   0.00974926   0.00000000   0.00000000   0.00000000   0.00000000
    0.00000000   1.04477884  -0.04595875   0.00000000   0.00000000  -0.45546775   0.00000000   0.00000000   0.00000000   0.00000000
    0.00000000  -0.00586503   0.02187179   0.00000000   0.00000000  -0.67855092   0.00000000   0.00000000   0.00000000   0.06669798
    0.13250116   0.00000000   0.00000000   0.00000000   0.00000000   0.00000000
 
    0.00002118   0.00011910  -0.00067165   0.00428338   0.01192366   0.00000000  -0.00827746  -0.00235514  -0.02404203  -0.01285096
    0.00844752   0.00000000   0.00000000   0.07536029  -0.12885312   0.00000000  -0.02610316  -0.08804546  -0.02140121  -0.31824426
    0.00000000   0.00000000   0.00000000   0.04783960  -0.28922526   0.00000000  -0.90358652   0.93471732   0.19925537   0.00000000
    0.00000000  -0.22489785   0.14976515  -0.65686025  -0.11987148  -0.06477960
 
    0.00000000   0.00000000   0.00000000   0.00000000   0.00000000  -0.00189923   0.00000000   0.00000000   0.00000000   0.00000000
    0.00000000  -0.16518869   0.01011687   0.00000000   0.00000000   0.04505474   0.00000000   0.00000000   0.00000000   0.00000000
    0.00000000   0.02423648   0.13420383   0.00000000   0.00000000   1.25704747   0.00000000   0.00000000   0.00000000  -0.05143652
   -0.00525505   0.00000000   0.00000000   0.00000000   0.00000000   0.00000000
 
    0.00006457   0.00020103  -0.00800216   0.00158506  -0.03813639   0.00000000  -0.01630057   0.04604556   0.07437524   0.04515961
    0.04314285   0.00000000   0.00000000  -0.02747999   0.18106125   0.00000000  -0.02690170  -0.18774489  -0.11047161  -0.27898418
    0.00000000   0.00000000   0.00000000   0.18111557   0.13128626   0.00000000   0.98455060   0.91790298   0.50294434   0.00000000
    0.00000000  -0.31636537  -0.05132297  -0.60550233  -0.13123533  -0.12494979
 
    0.00000000   0.00000000   0.00000000   0.00000000   0.00000000   0.00087063   0.00000000   0.00000000   0.00000000   0.00000000
    0.00000000   0.00055176   0.00099435   0.00000000   0.00000000   0.06494480   0.00000000   0.00000000   0.00000000   0.00000000
    0.00000000   0.11255236   1.00101976   0.00000000   0.00000000  -0.13679266   0.00000000   0.00000000   0.00000000  -0.04012149
    0.19608309   0.00000000   0.00000000   0.00000000   0.00000000   0.00000000
 
    0.00000000   0.00000000   0.00000000   0.00000000   0.00000000   0.00000000   0.00000000   0.00000000   0.00000000   0.00000000
    0.00000000   0.00000000   0.00000000   0.00000000   0.00000000   0.00000000   0.00000000   0.00000000   0.00000000   0.00000000
    1.00000000   0.00000000   0.00000000   0.00000000   0.00000000   0.00000000   0.00000000   0.00000000   0.00000000   0.00000000
    0.00000000   0.00000000   0.00000000   0.00000000   0.00000000   0.00000000
 
   -0.00002719   0.00063170   0.00214686  -0.00711256  -0.00447971   0.00000000   0.01653865  -0.00510672  -0.02365101   0.04806089
   -0.04809269   0.00000000   0.00000000  -0.00835263  -0.07118153   0.00000000  -0.00507387  -0.00853445  -0.07979549   0.11034373
    0.00000000   0.00000000   0.00000000   0.05186939  -0.25907194   0.00000000   0.02911718  -0.06633463   0.00300913   0.00000000
    0.00000000   0.09547098   0.13024299  -0.30252162   1.84330341   0.04539406
 
    0.00003503   0.00298063  -0.01113549   0.05129917   0.01359457   0.00000000  -0.06686242   0.05671400   0.15038942  -0.16244482
    0.23418039   0.00000000   0.00000000   0.03131131   0.44537615   0.00000000   0.02642075   0.01745373   0.54820535  -0.79776652
    0.00000000   0.00000000   0.00000000  -0.46601314   2.19236383   0.00000000  -0.12442044   0.49475121   0.49034051   0.00000000
    0.00000000  -0.05783977   0.08661604  -0.16427078  -2.48946916  -0.19295447
 
   -0.00055840   0.01103397   0.06736573  -0.10663693   0.08961298   0.00000000   0.32296036  -0.29624280  -0.78518773   0.85812190
   -1.35674830   0.00000000   0.00000000   0.24827906  -3.19630369   0.00000000  -0.83124314  -0.20094251   0.97185532   0.81404861
    0.00000000   0.00000000   0.00000000   0.95062734  -4.44926370   0.00000000  -1.48561664  -2.85924777  -2.49929111   0.00000000
    0.00000000   0.34106601  -0.40639236   2.32977054   2.84745465   0.74283653
 
   -0.00060077   0.01669338   0.11646405   0.87552346   2.59698593   0.00000000  -0.88324323  -1.12489293  -2.53294708  -2.29447504
   -2.54564101   0.00000000   0.00000000   0.69441300  -2.29180756   0.00000000  -0.50003604  -0.29130199   2.07427551   1.02906222
    0.00000000   0.00000000   0.00000000  -0.04687692  -1.57340443   0.00000000  -0.71227407  -0.51786799  -0.90077605   0.00000000
    0.00000000   0.08524334  -0.94715251   0.33711311   0.57571369   0.32201364
 
   -0.00002247  -0.00027377   0.00159726  -0.00372180  -0.00125782   0.00000000   0.00749719  -0.00360981   0.00325276   0.02637741
    0.07124065   0.00000000   0.00000000   0.03381356  -0.04153969   0.00000000   0.01757456   0.06667492  -0.07036233  -0.19154445
    0.00000000   0.00000000   0.00000000  -0.00336386  -0.06282300   0.00000000  -0.09877321  -0.20094350   0.01402985   0.00000000
    0.00000000  -0.67364785   0.89501452   1.38038458   0.26829502   0.08068949
 
    0.00010732  -0.00177778  -0.00495853   0.01718332   0.02063163   0.00000000  -0.04986523   0.00501532  -0.02948780  -0.14616726
   -0.37563699   0.00000000   0.00000000  -0.19682030   0.19704087   0.00000000  -0.12895633  -0.36385483   0.55172340   1.43213781
    0.00000000   0.00000000   0.00000000  -0.02088172   0.43242082   0.00000000   0.65606673   1.69461991   0.66244791   0.00000000
    0.00000000   0.28375094  -1.00708761  -2.27280635  -0.46127230  -0.25140227
 
    0.00037698  -0.00461121  -0.08428225  -0.12328892  -0.71369835   0.00000000   0.02090443   0.67951488   1.25998290   1.74967830
    2.71527849   0.00000000   0.00000000   0.04832675   2.61032826   0.00000000   0.86458063   0.12349306  -2.91817441  -1.57463589
    0.00000000   0.00000000   0.00000000  -0.57673848   2.87554680   0.00000000   0.55276311   1.37895391   1.75582282   0.00000000
    0.00000000  -0.17113192   1.44804344  -0.91091441  -1.43030726  -0.54243037
 
   -0.00000195   0.00015668  -0.00203423  -0.00348241  -0.01455375   0.00000000   0.00258232   0.01325320   0.01682951   0.02630417
    0.00274313   0.00000000   0.00000000  -0.01451532   0.02743142   0.00000000  -0.00665829  -0.08432056  -0.13843450  -0.01242983
    0.00000000   0.00000000   0.00000000   0.04448629   0.07838812   0.00000000  -0.07424524   0.16529878   0.04496184   0.00000000
    0.00000000   1.05329904   0.71233550   0.17364373  -0.16800490  -0.00942595
 
    0.00000000   0.00000000   0.00000000   0.00000000   0.00000000   0.00019619   0.00000000   0.00000000   0.00000000   0.00000000
    0.00000000  -0.02583492  -0.00130438   0.00000000   0.00000000  -0.14952102   0.00000000   0.00000000   0.00000000   0.00000000
    0.00000000   0.00021545   0.03296807   0.00000000   0.00000000   0.00320662   0.00000000   0.00000000   0.00000000   1.08929519
    0.50707339   0.00000000   0.00000000   0.00000000   0.00000000   0.00000000
 
   -0.00016224   0.00093135   0.02621961   0.02229915   0.16236132   0.00000000   0.04053867  -0.16352818  -0.21239565  -0.31858753
   -0.10778178   0.00000000   0.00000000   0.08763218  -0.64472940   0.00000000  -0.04088237   0.84979918   1.61870760   0.17289778
    0.00000000   0.00000000   0.00000000   0.12634780  -1.39830719   0.00000000   0.06022949  -1.35514354  -0.88714800   0.00000000
    0.00000000  -0.44913082  -0.85092396   1.14102575   0.80702772   0.30871656
 
    0.00000000   0.00000000   0.00000000   0.00000000   0.00000000  -0.00114920   0.00000000   0.00000000   0.00000000   0.00000000
    0.00000000   0.14730881   0.01485694   0.00000000   0.00000000   1.10696850   0.00000000   0.00000000   0.00000000   0.00000000
    0.00000000  -0.01824090  -0.30866412   0.00000000   0.00000000   0.12322986   0.00000000   0.00000000   0.00000000  -0.49800935
   -0.31813860   0.00000000   0.00000000   0.00000000   0.00000000   0.00000000
 
    0.00003367  -0.00011676  -0.00178490  -0.00111056  -0.00920705   0.00000000  -0.00578331   0.00917781   0.00875024   0.02340685
    0.01339764   0.00000000   0.00000000   0.01269862   0.03628695   0.00000000   0.01675296  -0.01194227  -0.04842580  -0.02077974
    0.00000000   0.00000000   0.00000000  -0.04503302   0.00060636   0.00000000   0.09170180  -0.00853077   0.07156872   0.00000000
    0.00000000  -0.30043076   0.71227591  -0.87088884  -0.28175812  -0.05693082
 
    0.00000000   0.00000000   0.00000000   0.00000000   0.00000000   0.00014811   0.00000000   0.00000000   0.00000000   0.00000000
    0.00000000   0.00507682  -0.00135321   0.00000000   0.00000000  -0.00073887   0.00000000   0.00000000   0.00000000   0.00000000
    0.00000000  -0.00191488  -0.04139189   0.00000000   0.00000000  -0.01164192   0.00000000   0.00000000   0.00000000  -0.40832640
    0.92954622   0.00000000   0.00000000   0.00000000   0.00000000   0.00000000

 SYMMETRY BLOCK 4.1
 
    0.89339722  -0.03940744  -1.10105844  -0.50713907   0.00000000   0.07483780   0.29015625   0.73230086   0.00717392   0.33598994
    0.00000000   0.04407582   0.00000000  -0.02740339   0.22954584  -0.36224299   0.00000000  -0.05933340  -0.16302501  -0.00355235
 
    0.05733113  -0.02800912   1.27233044   0.09295406   0.00000000  -0.02580745  -0.02546418  -1.55042828   0.77327392   0.13895553
    0.00000000  -0.00168602   0.00000000   0.13751606   0.25696470   1.17498635   0.00000000  -0.08137046  -0.14263512  -0.32442270
 
    0.15203762  -0.00914123   0.01971544  -0.01258152   0.00000000  -0.01611532   0.00634978   1.32847851  -0.45520506  -0.05634133
    0.00000000  -0.00096633   0.00000000  -0.04331858  -0.08594149  -1.97577459   0.00000000   0.06027100   0.06724909   0.19338488
 
    0.03475651  -0.00510620   0.16092065   0.00596420   0.00000000  -0.00610590   0.00139205   0.11990350  -0.02808435   0.00297894
    0.00000000  -0.00367343   0.00000000  -0.02332569  -0.04275097   1.61413020   0.00000000  -0.03960245  -0.02189671  -0.07449815
 
    0.02798382   1.16030716   0.03398820  -0.89445205   0.00000000  -0.79826088   0.93455414   0.03706880   0.19784776   0.48175619
    0.00000000   0.75885250   0.00000000  -0.20074229   0.23112938   0.02019396   0.00000000  -0.11784869  -0.23275319   0.02135783
 
   -0.00141725  -0.39017108  -0.01653628   0.17061576   0.00000000   1.44959551  -0.79652221   0.20630015   0.59657962   0.14830984
    0.00000000  -1.77926014   0.00000000   0.60127848   0.70391130   0.06533323   0.00000000  -0.03966033  -0.13766704  -0.50443646
 
    0.00188261   0.13784581   0.00975322  -0.04905985   0.00000000  -0.16386755   0.08658747  -0.01918860  -0.00269036  -0.10704698
    0.00000000   1.69635352   0.00000000  -0.40327271  -0.40736619  -0.02837560   0.00000000   0.01727408   0.00488619   0.13419627
 
    0.01009289   0.01102434  -0.02348255   0.01169086   0.00000000   0.45924584   1.21069199   0.22014357   0.80073021   0.36146315
    0.00000000  -0.00922612   0.00000000  -0.40121822   1.00553015   0.07359295   0.00000000  -0.16557622  -0.24699616  -0.30651232
 
    0.00000000   0.00000000   0.00000000   0.00000000   1.09738483   0.00000000   0.00000000   0.00000000   0.00000000   0.00000000
   -0.01032397   0.00000000  -0.63966635   0.00000000   0.00000000   0.00000000  -0.02717266   0.00000000   0.00000000   0.00000000
 
   -0.00104155  -0.00036103   0.00350260  -0.00380905   0.00000000  -0.06363982  -0.16569759  -0.02685446  -0.11803739   0.05313767
    0.00000000   0.12044624   0.00000000   1.10691317  -0.63644560  -0.00930498   0.00000000   0.14121972  -0.02848996  -0.17940079
 
    0.00000000   0.00000000   0.00000000   0.00000000  -0.17307141   0.00000000   0.00000000   0.00000000   0.00000000   0.00000000
    0.01368778   0.00000000   1.25834547   0.00000000   0.00000000   0.00000000   0.01185366   0.00000000   0.00000000   0.00000000
 
    0.00000000   0.00000000   0.00000000   0.00000000   0.00297279   0.00000000   0.00000000   0.00000000   0.00000000   0.00000000
    0.99928252   0.00000000  -0.01025107   0.00000000   0.00000000   0.00000000  -0.04867956   0.00000000   0.00000000   0.00000000
 
    0.00280824   0.00453343  -0.00785031  -0.02046018   0.00000000  -0.01209223   0.00940503   0.02363721  -0.08974749   0.12189555
    0.00000000   0.25133647   0.00000000   0.42242474   1.07695854   0.06173028   0.00000000   0.12543680  -0.13778784  -0.39879439
 
    0.00198669   0.01671802  -0.00456434   0.08116112   0.00000000  -0.02520892  -0.01280575   0.02118507   0.08126812  -0.25951181
    0.00000000  -0.00777591   0.00000000   0.04063281   0.04861636  -0.01422146   0.00000000  -0.30508790   1.25628521  -0.94219562
 
   -0.00508106  -0.06478580   0.01762157  -0.37343446   0.00000000   0.12804096   0.08149445  -0.10489663  -0.46464867   1.62206775
    0.00000000   0.08545733   0.00000000  -0.37810081  -0.33489518  -0.02696129   0.00000000   0.17259279  -1.15262333   0.92636656
 
    0.00636649   0.16397590  -0.00318108   1.50000938   0.00000000  -0.26201155  -0.87019952  -0.15407295  -0.46856743  -1.50245542
    0.00000000  -0.15243941   0.00000000   0.14922767  -0.66706616  -0.05404456   0.00000000   0.10122141   0.80546463   0.00912678
 
   -0.00227325  -0.00658701   0.00618610   0.00224096   0.00000000   0.02184859  -0.00012172  -0.04223469  -0.13911226  -0.07879328
    0.00000000  -0.01907411   0.00000000  -0.07762473  -0.06012070   0.02143759   0.00000000   1.11041133   0.50376209   0.27573286
 
    0.01073270   0.02715111  -0.03730632  -0.02299772   0.00000000  -0.11289420   0.07595789   0.34050877   1.27678899   0.73577826
    0.00000000   0.02560571   0.00000000   0.37993927   0.82923412   0.09612861   0.00000000  -0.56717870  -0.54209141  -0.59617946
 
    0.00001154   0.00326325   0.00017476   0.00311087   0.00000000  -0.01177802  -0.01367069  -0.00192486  -0.00035363  -0.00462699
    0.00000000   0.02381104   0.00000000   0.06033630  -0.01416837   0.01481178   0.00000000  -0.35721691   0.52248161   0.88438489
 
    0.00000000   0.00000000   0.00000000   0.00000000   0.00061191   0.00000000   0.00000000   0.00000000   0.00000000   0.00000000
    0.01628510   0.00000000  -0.00183472   0.00000000   0.00000000   0.00000000   1.00060967   0.00000000   0.00000000   0.00000000


 **********************************************************************************************************************************
 DATASETS  * FILE   NREC   LENGTH (MB)   RECORD NAMES
              1      20      114.02       500      610      700      900      950      970     1000      129      960     1100   
                                          VAR    BASINP    GEOM    SYMINP    ZMAT    AOBASIS   BASIS     P2S    ABASIS      S 
                                         1400     1410     1200     1210     1080     1600     1650     1300     1700     1380   
                                           T        V       H0       H01     AOSYM     SMH    MOLCAS    ERIS     OPER     JKOP   

              2       6        8.22       700     1000      520     2100     2140     6000   
                                         GEOM     BASIS   MCVARS     RHF     MCSCF    MRCI   

 PROGRAMS   *        TOTAL    MATROP    MATROP      MRCI     MULTI        HF       INT
 CPU TIMES  *         7.93      0.01      0.00      2.02      0.98      0.91      3.90
 REAL TIME  *         8.89 SEC
 DISK USED  *       272.15 MB      
 **********************************************************************************************************************************

        MRCI            MULTI           HF-SCF  
   -459.88844429   -459.70085680   -459.68278971
 **********************************************************************************************************************************
 Variable memory released
