
 Primary working directories    : /tmp
 Secondary working directories  : /tmp
 Wavefunction directory         : /home/rafa/wfu/
 Main file repository           : /tmp/

 SHA1      : 4ec4dc93002b799946f9d771447a1bf2a9d2b87b
 NAME      : 2099.9.4ec4dc9
 ARCHNAME  : linux/x86_64
 FC        : /usr/bin/gfortran
 BLASLIB   : -L/usr/local/intel/composer_xe_2013_sp1.2.144/mkl/lib/intel64 -lmkl_gf_ilp64 -lmkl_sequential -lmkl_core -lpthread
 id        : lopez

 Nodes     nprocs
 localhost    1

 Using customized tuning parameters: mindgm=1; mindgv=20; mindgc=4; mindgr=1; noblas=0; minvec=7
 default implementation of scratch files=df  

   ***,
   memory,50,m
   basis=cc-pvdz
   rcc=1.40 ,ang
   rch=1.08 ,ang
   a1=120.7
   d=0.
   geometry={
      c1;
      c2,c1,rcc;
      h1,c1,rch,c2,a1;
      h2,c1,rch,c2,a1,h1,180.;
      h3,c2,rch,c1,a1,h1, d ;
      h4,c2,rch,c1,a1,h3,180.;
   }
   gprint,basis
   hf;orbital,2100.2
   {matrop
   load,d,den
   print,d
   }
   {matrop
   load,GAorba,orb,2100.2
   print,GAorba
   }

 Variables initialized (844), CPU time= 0.00 sec
 Commands  initialized (632), CPU time= 0.02 sec, 533 directives.
 Default parameters read. Elapsed time= 0.05 sec

 Checking input...
 Passed
1


                                         ***  PROGRAM SYSTEM MOLPRO  ***
                         Copyright, University College Cardiff Consultants Limited, 2008

                                    Version 2099.9 linked may  7 2014 12:21:06


 **********************************************************************************************************************************
 LABEL *                                                                                 
  64 bit serial version                                                                  DATE: 12-Nov-14          TIME: 16:00:48  
 **********************************************************************************************************************************

 SHA1:             4ec4dc93002b799946f9d771447a1bf2a9d2b87b
 **********************************************************************************************************************************

 Variable memory set to   50000000 words,  buffer space   230000 words

 SETTING BASIS          =    CC-PVDZ
 SETTING RCC            =         1.40000000  ANG                             
 SETTING RCH            =         1.08000000  ANG                             
 SETTING A1             =       120.70000000                                  
 SETTING D              =         0.00000000                                  



 Recomputing integrals since basis changed


 Using spherical harmonics

 Library entry C      S cc-pVDZ              selected for orbital group  1
 Library entry C      P cc-pVDZ              selected for orbital group  1
 Library entry C      D cc-pVDZ              selected for orbital group  1
 Library entry H      S cc-pVDZ              selected for orbital group  2
 Library entry H      P cc-pVDZ              selected for orbital group  2

1PROGRAM * SEWARD (Integral evaluation for generally contracted gaussian basis sets)     Author: Roland Lindh, 1990

 Geometry written to block  1 of record 700

 Orientation using atomic masses  
 Molecule type: Asymmetric top,     Order of principal axis = 2
 Symmetry elements: X,Y,Z
 Rotational constants:      23.4392059     27.9455981    145.3541104 GHz  (calculated with average atomic masses)

 Point group  D2h 



 ATOMIC COORDINATES

 NR  ATOM    CHARGE       X              Y              Z

   1  C1      6.00    0.000000000    0.000000000   -1.322808292
   2  C2      6.00    0.000000000    0.000000000    1.322808292
   3  H1      1.00    0.000000000    1.754876131   -2.364777489
   4  H2      1.00    0.000000000   -1.754876131   -2.364777489
   5  H3      1.00    0.000000000    1.754876131    2.364777489
   6  H4      1.00    0.000000000   -1.754876131    2.364777489

 Bond lengths in Bohr (Angstrom)

 1-2  2.645616584  1-3  2.040904222  1-4  2.040904222  2-5  2.040904222  2-6  2.040904222
     ( 1.400000000)     ( 1.080000000)     ( 1.080000000)     ( 1.080000000)     ( 1.080000000)

 Bond angles

  1-2-5  120.70000000   1-2-6  120.70000000   2-1-3  120.70000000   2-1-4  120.70000000

  3-1-4  118.60000000   5-2-6  118.60000000


 BASIS DATA

   Nr Sym  Nuc  Type         Exponents   Contraction coefficients

    1.1 Ag    1  1s        6665.000000   0.69200000E-03 -0.14600000E-03  0.00000000E+00
    2.1 Ag    2  1s        1000.000000   0.53290000E-02 -0.11540000E-02  0.00000000E+00
    3.1 Ag                  228.000000   0.27077000E-01 -0.57250000E-02  0.00000000E+00
                             64.710000   0.10171800E+00 -0.23312000E-01  0.00000000E+00
                             21.060000   0.27474000E+00 -0.63955000E-01  0.00000000E+00
                              7.495000   0.44856400E+00 -0.14998100E+00  0.00000000E+00
                              2.797000   0.28507400E+00 -0.12726200E+00  0.00000000E+00
                              0.521500   0.15204000E-01  0.54452900E+00  0.00000000E+00
                              0.159600  -0.31910000E-02  0.58049600E+00  0.10000000E+01
    4.1 Ag    1  2pz          9.439000   0.38109000E-01  0.00000000E+00
    5.1 Ag    2 -2pz          2.002000   0.20948000E+00  0.00000000E+00
                              0.545600   0.50855700E+00  0.00000000E+00
                              0.151700   0.46884200E+00  0.10000000E+01
    6.1 Ag    1  3d0          0.550000   0.10000000E+01
              2  3d0   
    7.1 Ag    1  3d2+         0.550000   0.10000000E+01
              2  3d2+  
    8.1 Ag    3  1s          13.010000   0.19685000E-01  0.00000000E+00
    9.1 Ag    4  1s           1.962000   0.13797700E+00  0.00000000E+00
              5  1s           0.444600   0.47814800E+00  0.00000000E+00
              6  1s           0.122000   0.50124000E+00  0.10000000E+01
   10.1 Ag    3  2py          0.727000   0.10000000E+01
              4 -2py   
              5  2py   
              6 -2py   
   11.1 Ag    3  2pz          0.727000   0.10000000E+01
              4  2pz   
              5 -2pz   
              6 -2pz   
    1.2 B3u   1  2px          9.439000   0.38109000E-01  0.00000000E+00
    2.2 B3u   2  2px          2.002000   0.20948000E+00  0.00000000E+00
                              0.545600   0.50855700E+00  0.00000000E+00
                              0.151700   0.46884200E+00  0.10000000E+01
    3.2 B3u   1  3d1+         0.550000   0.10000000E+01
              2 -3d1+  
    4.2 B3u   3  2px          0.727000   0.10000000E+01
              4  2px   
              5  2px   
              6  2px   
    1.3 B2u   1  2py          9.439000   0.38109000E-01  0.00000000E+00
    2.3 B2u   2  2py          2.002000   0.20948000E+00  0.00000000E+00
                              0.545600   0.50855700E+00  0.00000000E+00
                              0.151700   0.46884200E+00  0.10000000E+01
    3.3 B2u   1  3d1-         0.550000   0.10000000E+01
              2 -3d1-  
    4.3 B2u   3  1s          13.010000   0.19685000E-01  0.00000000E+00
    5.3 B2u   4 -1s           1.962000   0.13797700E+00  0.00000000E+00
              5  1s           0.444600   0.47814800E+00  0.00000000E+00
              6 -1s           0.122000   0.50124000E+00  0.10000000E+01
    6.3 B2u   3  2py          0.727000   0.10000000E+01
              4  2py   
              5  2py   
              6  2py   
    7.3 B2u   3  2pz          0.727000   0.10000000E+01
              4 -2pz   
              5 -2pz   
              6  2pz   
    1.4 B1g   1  3d2-         0.550000   0.10000000E+01
              2  3d2-  
    2.4 B1g   3  2px          0.727000   0.10000000E+01
              4 -2px   
              5  2px   
              6 -2px   
    1.5 B1u   1  1s        6665.000000   0.69200000E-03 -0.14600000E-03  0.00000000E+00
    2.5 B1u   2 -1s        1000.000000   0.53290000E-02 -0.11540000E-02  0.00000000E+00
    3.5 B1u                 228.000000   0.27077000E-01 -0.57250000E-02  0.00000000E+00
                             64.710000   0.10171800E+00 -0.23312000E-01  0.00000000E+00
                             21.060000   0.27474000E+00 -0.63955000E-01  0.00000000E+00
                              7.495000   0.44856400E+00 -0.14998100E+00  0.00000000E+00
                              2.797000   0.28507400E+00 -0.12726200E+00  0.00000000E+00
                              0.521500   0.15204000E-01  0.54452900E+00  0.00000000E+00
                              0.159600  -0.31910000E-02  0.58049600E+00  0.10000000E+01
    4.5 B1u   1  2pz          9.439000   0.38109000E-01  0.00000000E+00
    5.5 B1u   2  2pz          2.002000   0.20948000E+00  0.00000000E+00
                              0.545600   0.50855700E+00  0.00000000E+00
                              0.151700   0.46884200E+00  0.10000000E+01
    6.5 B1u   1  3d0          0.550000   0.10000000E+01
              2 -3d0   
    7.5 B1u   1  3d2+         0.550000   0.10000000E+01
              2 -3d2+  
    8.5 B1u   3  1s          13.010000   0.19685000E-01  0.00000000E+00
    9.5 B1u   4  1s           1.962000   0.13797700E+00  0.00000000E+00
              5 -1s           0.444600   0.47814800E+00  0.00000000E+00
              6 -1s           0.122000   0.50124000E+00  0.10000000E+01
   10.5 B1u   3  2pz          0.727000   0.10000000E+01
              4  2pz   
              5  2pz   
              6  2pz   
   11.5 B1u   3  2py          0.727000   0.10000000E+01
              4 -2py   
              5 -2py   
              6  2py   
    1.6 B2g   1  2px          9.439000   0.38109000E-01  0.00000000E+00
    2.6 B2g   2 -2px          2.002000   0.20948000E+00  0.00000000E+00
                              0.545600   0.50855700E+00  0.00000000E+00
                              0.151700   0.46884200E+00  0.10000000E+01
    3.6 B2g   1  3d1+         0.550000   0.10000000E+01
              2  3d1+  
    4.6 B2g   3  2px          0.727000   0.10000000E+01
              4  2px   
              5 -2px   
              6 -2px   
    1.7 B3g   1  2py          9.439000   0.38109000E-01  0.00000000E+00
    2.7 B3g   2 -2py          2.002000   0.20948000E+00  0.00000000E+00
                              0.545600   0.50855700E+00  0.00000000E+00
                              0.151700   0.46884200E+00  0.10000000E+01
    3.7 B3g   1  3d1-         0.550000   0.10000000E+01
              2  3d1-  
    4.7 B3g   3  1s          13.010000   0.19685000E-01  0.00000000E+00
    5.7 B3g   4 -1s           1.962000   0.13797700E+00  0.00000000E+00
              5 -1s           0.444600   0.47814800E+00  0.00000000E+00
              6  1s           0.122000   0.50124000E+00  0.10000000E+01
    6.7 B3g   3  2pz          0.727000   0.10000000E+01
              4 -2pz   
              5  2pz   
              6 -2pz   
    7.7 B3g   3  2py          0.727000   0.10000000E+01
              4  2py   
              5 -2py   
              6 -2py   
    1.8 Au    1  3d2-         0.550000   0.10000000E+01
              2 -3d2-  
    2.8 Au    3  2px          0.727000   0.10000000E+01
              4 -2px   
              5 -2px   
              6  2px   

 NUCLEAR CHARGE:                   16
 NUMBER OF PRIMITIVE AOS:          82
 NUMBER OF SYMMETRY AOS:           80
 NUMBER OF CONTRACTIONS:           48   (  11Ag  +   4B3u +   7B2u +   2B1g +  11B1u +   4B2g +   7B3g +   2Au  )
 NUMBER OF CORE ORBITALS:           2   (   1Ag  +   0B3u +   0B2u +   0B1g +   1B1u +   0B2g +   0B3g +   0Au  )
 NUMBER OF VALENCE ORBITALS:       12   (   3Ag  +   1B3u +   2B2u +   0B1g +   3B1u +   1B2g +   2B3g +   0Au  )


 NUCLEAR REPULSION ENERGY   32.57600323


 Eigenvalues of metric

         1 0.166E-01 0.459E-01 0.940E-01 0.138E+00 0.359E+00 0.971E+00 0.109E+01 0.125E+01
         2 0.190E+00 0.575E+00 0.158E+01 0.298E+01
         3 0.399E-01 0.624E-01 0.146E+00 0.737E+00 0.111E+01 0.167E+01 0.394E+01
         4 0.496E+00 0.164E+01
         5 0.459E-02 0.281E-01 0.437E-01 0.777E-01 0.121E+00 0.353E+00 0.905E+00 0.983E+00
         6 0.123E+00 0.361E+00 0.503E+00 0.170E+01
         7 0.169E-01 0.283E-01 0.113E+00 0.258E+00 0.108E+01 0.112E+01 0.202E+01
         8 0.373E+00 0.147E+01


 Contracted 2-electron integrals neglected if value below      1.0D-11
 AO integral compression algorithm  1   Integral accuracy      1.0D-11

     1.049 MB (compressed) written to integral file ( 72.8%)


 NUMBER OF SORTED TWO-ELECTRON INTEGRALS:     101266.     BUFFER LENGTH:  32768
 NUMBER OF SEGMENTS:   1  SEGMENT LENGTH:     101266      RECORD LENGTH: 524288

 Memory used in sort:       0.66 MW

 SORT1 READ      166944. AND WROTE      100030. INTEGRALS IN      1 RECORDS. CPU TIME:     0.01 SEC, REAL TIME:     0.01 SEC
 SORT2 READ      100030. AND WROTE      101266. INTEGRALS IN      4 RECORDS. CPU TIME:     0.04 SEC, REAL TIME:     0.05 SEC

 FILE SIZES:   FILE 1:     8.7 MBYTE,  FILE 4:     4.2 MBYTE,   TOTAL:     12.9 MBYTE

 OPERATOR DM      FOR CENTER  0  COORDINATES:    0.000000    0.000000    0.000000


 **********************************************************************************************************************************
 DATASETS  * FILE   NREC   LENGTH (MB)   RECORD NAMES
              1      19        8.20       500      610      700      900      950      970     1000      129      960     1100   
                                          VAR    BASINP    GEOM    SYMINP    ZMAT    AOBASIS   BASIS     P2S    ABASIS      S 
                                         1400     1410     1200     1210     1080     1600     1650     1300     1700   
                                           T        V       H0       H01     AOSYM     SMH    MOLCAS    ERIS     OPER   

 PROGRAMS   *        TOTAL       INT
 CPU TIMES  *         0.37      0.22
 REAL TIME  *         1.16 SEC
 DISK USED  *        13.23 MB      
 **********************************************************************************************************************************

1PROGRAM * RHF-SCF (CLOSED SHELL)       Authors: W. Meyer, H.-J. Werner


 NUMBER OF ELECTRONS:       8+    8-
 CONVERGENCE THRESHOLDS:    1.00E-05 (Density)    1.00E-07 (Energy)
 MAX. NUMBER OF ITERATIONS:       60
 INTERPOLATION TYPE:            DIIS
 INTERPOLATION STEPS:              2 (START)      1 (STEP)
 LEVEL SHIFTS:                  0.00 (CLOSED)  0.00 (OPEN) 



 Orbital guess generated from atomic densities. Full valence occupancy:    4   1   2   0   4   1   2   0


 Molecular orbital dump at record        2100.2

 Initial occupancy:   3   1   1   0   2   0   1   0

 ITERATION    DDIFF          GRAD             ENERGY        2-EL.EN.            DIPOLE MOMENTS         DIIS   ORB.
    1      0.000D+00      0.000D+00       -78.01295700    116.353755    0.00000    0.00000    0.00000    0    start
    2      0.000D+00      0.143D-01       -78.03128198    115.359375    0.00000    0.00000    0.00000    1    diag
    3      0.317D-01      0.444D-02       -78.03287651    115.809436    0.00000    0.00000    0.00000    2    diag
    4      0.975D-02      0.136D-02       -78.03305792    115.688898    0.00000    0.00000    0.00000    3    diag
    5      0.324D-02      0.131D-03       -78.03305978    115.694554    0.00000    0.00000    0.00000    4    diag
    6      0.379D-03      0.178D-04       -78.03305982    115.694075    0.00000    0.00000    0.00000    5    diag
    7      0.547D-04      0.285D-05       -78.03305982    115.694068    0.00000    0.00000    0.00000    6    diag
    8      0.782D-05      0.290D-06       -78.03305982    115.694068    0.00000    0.00000    0.00000    0    orth

 Final occupancy:   3   1   1   0   2   0   1   0

 !RHF STATE 1.1 Energy                -78.033059822218
 Nuclear energy                        32.57600323
 One-electron energy                 -168.45609728
 Two-electron energy                   57.84703422
 Virial quotient                       -1.00411070
 !RHF STATE 1.1 Dipole moment           0.00000000     0.00000000     0.00000000
 Dipole moment /Debye                   0.00000000     0.00000000     0.00000000

 Orbital energies:

         1.1          2.1          3.1          4.1          5.1
    -11.245819    -1.013046    -0.569053     0.202305     0.590223

         1.2          2.2          3.2
     -0.358834     0.701767     1.239440

         1.3          2.3          3.3
     -0.636009     0.236222     0.606382

         1.4          2.4
      1.137483     1.987294

         1.5          2.5          3.5          4.5
    -11.244621    -0.797038     0.236706     0.447826

         1.6          2.6
      0.152926     0.800887

         1.7          2.7          3.7
     -0.516594     0.299386     0.925029

         1.8          2.8
      1.282153     2.350651

 HOMO      1.2    -0.358834 =      -9.7644eV
 LUMO      1.6     0.152926 =       4.1613eV
 LUMO-HOMO         0.511760 =      13.9257eV


 **********************************************************************************************************************************
 DATASETS  * FILE   NREC   LENGTH (MB)   RECORD NAMES
              1      19        8.20       500      610      700      900      950      970     1000      129      960     1100   
                                          VAR    BASINP    GEOM    SYMINP    ZMAT    AOBASIS   BASIS     P2S    ABASIS      S 
                                         1400     1410     1200     1210     1080     1600     1650     1300     1700   
                                           T        V       H0       H01     AOSYM     SMH    MOLCAS    ERIS     OPER   

              2       4        0.42       700     1000      520     2100   
                                         GEOM     BASIS   MCVARS     RHF  

 PROGRAMS   *        TOTAL        HF       INT
 CPU TIMES  *         0.39      0.02      0.22
 REAL TIME  *         1.34 SEC
 DISK USED  *        13.23 MB      
 **********************************************************************************************************************************


 PROGRAM * MATROP


 Density D read from record              2100.2  Type=RHF/CHARGE (state 1.1)

 MATRIX D               

 SYMMETRY BLOCK 1.1
   0.200591094052919E+01 -0.356715563455029E-01 -0.143610336518124E-02 -0.522420022630377E-02  0.364519349707887E-02 -0.112233684244681E-02 -0.705119849224209E-03 -0.314701883731880E-01  0.175835568945559E-01  0.313248167366448E-02 -0.164853523547491E-02
  -0.356715563455029E-01  0.142488791888878E+01 -0.347121288125160E+00  0.506402535518682E+00 -0.137587854164150E+00  0.480895627120540E-01  0.590134243163803E-02  0.572940236548500E+00 -0.281993589715605E+00 -0.455912316392998E-01  0.359357281843108E-01
  -0.143610336518124E-02 -0.347121288125160E+00  0.855093473608468E-01 -0.158373969592841E+00  0.408263640705132E-01 -0.126967421916571E-01 -0.213018896442085E-02 -0.114234489545525E+00  0.614467407225685E-01  0.982460233709791E-02 -0.888187139700789E-02
  -0.522420022630377E-02  0.506402535518682E+00 -0.158373969592841E+00  0.154648169130180E+01 -0.334509062855851E+00  0.554278352325623E-01  0.292669274618235E-01 -0.783287876575044E+00  0.181063570151114E+00  0.335071044466990E-01  0.178970556027750E-01
   0.364519349707887E-02 -0.137587854164150E+00  0.408263640705132E-01 -0.334509062855851E+00  0.729819196459645E-01 -0.126563708693218E-01 -0.624911261982531E-02  0.150938114520159E+00 -0.315531277163096E-01 -0.598598598520479E-02 -0.454193500562956E-02
  -0.112233684244681E-02  0.480895627120540E-01 -0.126967421916571E-01  0.554278352325623E-01 -0.126563708693218E-01  0.269854569798733E-02  0.961447428726767E-03 -0.835010062100182E-02 -0.162646055950714E-02 -0.144199359153628E-03  0.135666599631650E-02
  -0.705119849224209E-03  0.590134243163803E-02 -0.213018896442085E-02  0.292669274618235E-01 -0.624911261982531E-02  0.961447428726767E-03  0.564889454997028E-03 -0.172452171622320E-01  0.442155173754479E-02  0.798935978839101E-03  0.251014580979604E-03
  -0.314701883731880E-01  0.572940236548500E+00 -0.114234489545525E+00 -0.783287876575044E+00  0.150938114520159E+00 -0.835010062100182E-02 -0.172452171622320E-01  0.943204625744604E+00 -0.316587617426498E+00 -0.542434104415581E-01  0.107523740566199E-01
   0.175835568945559E-01 -0.281993589715605E+00  0.614467407225685E-01  0.181063570151114E+00 -0.315531277163096E-01 -0.162646055950714E-02  0.442155173754479E-02 -0.316587617426498E+00  0.113748243247801E+00  0.192628804843965E-01 -0.606031973767991E-02
   0.313248167366448E-02 -0.455912316392998E-01  0.982460233709791E-02  0.335071044466990E-01 -0.598598598520479E-02 -0.144199359153628E-03  0.798935978839101E-03 -0.542434104415581E-01  0.192628804843965E-01  0.326856095698080E-02 -0.964023726522736E-03
  -0.164853523547491E-02  0.359357281843108E-01 -0.888187139700789E-02  0.178970556027750E-01 -0.454193500562956E-02  0.135666599631650E-02  0.251014580979604E-03  0.107523740566199E-01 -0.606031973767991E-02 -0.964023726522736E-03  0.925826675626467E-03

 SYMMETRY BLOCK 2.1
   0.126559327354418E+01  0.941545866861358E-01  0.683582972815761E-01  0.423837145015806E-01
   0.941545866861358E-01  0.700468814061503E-02  0.508555739166556E-02  0.315316239785641E-02
   0.683582972815761E-01  0.508555739166556E-02  0.369222632967259E-02  0.228926513466916E-02
   0.423837145015806E-01  0.315316239785641E-02  0.228926513466916E-02  0.141939696781171E-02

 SYMMETRY BLOCK 3.1
   0.860374799184362E+00 -0.188378107894858E+00 -0.376766138954878E-02  0.951399729954663E+00 -0.312905431355320E+00 -0.299439023490717E-01  0.271803423984188E-01
  -0.188378107894858E+00  0.412451777617012E-01  0.824925281894070E-03 -0.208307915515939E+00  0.685102970991473E-01  0.655618420350528E-02 -0.595110581783950E-02
  -0.376766138954878E-02  0.824925281894070E-03  0.164989401825273E-04 -0.416626804036507E-02  0.137024203104876E-02  0.131127137661364E-03 -0.119025251211821E-03
   0.951399729954663E+00 -0.208307915515939E+00 -0.416626804036507E-02  0.105205481031744E+01 -0.346009835684423E+00 -0.331118724487316E-01  0.300559366016366E-01
  -0.312905431355320E+00  0.685102970991473E-01  0.137024203104876E-02 -0.346009835684423E+00  0.113799019990448E+00  0.108901489093826E-01 -0.988508353641368E-02
  -0.299439023490717E-01  0.655618420350528E-02  0.131127137661364E-03 -0.331118724487316E-01  0.108901489093826E-01  0.104214731619378E-02 -0.945966245599190E-03
   0.271803423984188E-01 -0.595110581783950E-02 -0.119025251211821E-03  0.300559366016366E-01 -0.988508353641368E-02 -0.945966245599190E-03  0.858661845506915E-03

 SYMMETRY BLOCK 4.1
   0.000000000000000E+00  0.000000000000000E+00
   0.000000000000000E+00  0.000000000000000E+00

 SYMMETRY BLOCK 5.1
   0.200703336845579E+01 -0.697198191488691E-02 -0.150547028361983E-01  0.102813336791010E-01 -0.404925974891270E-02  0.146184574964147E-02 -0.161051500855440E-02 -0.251811808414620E-01  0.132546466967752E-01 -0.158585660345097E-02  0.310956111200072E-02
  -0.697198191488691E-02  0.949802438904588E+00 -0.231438410776138E+00 -0.451482151024384E+00  0.733798075453653E-01 -0.199687656728229E-01 -0.125838686055633E-01  0.920079544574721E+00 -0.367362014523741E+00  0.239423623107376E-01 -0.574598893864105E-01
  -0.150547028361983E-01 -0.231438410776138E+00  0.565344626045308E-01  0.109954519645868E+00 -0.178511562229336E-01  0.485481082570428E-02  0.308052701509708E-02 -0.224042006401796E+00  0.894269868630705E-01 -0.582226561568567E-02  0.139788176847847E-01
   0.102813336791010E-01 -0.451482151024384E+00  0.109954519645868E+00  0.214633166926018E+00 -0.348927812370827E-01  0.949658335541313E-02  0.597574506200096E-02 -0.437417545425914E+00  0.174659695712510E+00 -0.113857348293628E-01  0.273224995639724E-01
  -0.404925974891270E-02  0.733798075453653E-01 -0.178511562229336E-01 -0.348927812370827E-01  0.567531569262707E-02 -0.154504694943123E-02 -0.969225439513441E-03  0.711157103109496E-01 -0.284001113492903E-01  0.185220485534969E-02 -0.444393583375474E-02
   0.146184574964147E-02 -0.199687656728229E-01  0.485481082570428E-02  0.949658335541313E-02 -0.154504694943123E-02  0.420687788593054E-03  0.263448854604507E-03 -0.193559441043365E-01  0.773038425742371E-02 -0.504291337777051E-03  0.120980534852820E-02
  -0.161051500855440E-02 -0.125838686055633E-01  0.308052701509708E-02  0.597574506200096E-02 -0.969225439513441E-03  0.263448854604507E-03  0.168167695204142E-03 -0.121744366973075E-01  0.485819631369740E-02 -0.316014296739536E-03  0.759001678451197E-03
  -0.251811808414620E-01  0.920079544574721E+00 -0.224042006401796E+00 -0.437417545425914E+00  0.711157103109496E-01 -0.193559441043365E-01 -0.121744366973075E-01  0.891455984983918E+00 -0.355962814062045E+00  0.232060627552472E-01 -0.556864313204575E-01
   0.132546466967752E-01 -0.367362014523741E+00  0.894269868630705E-01  0.174659695712510E+00 -0.284001113492903E-01  0.773038425742371E-02  0.485819631369740E-02 -0.355962814062045E+00  0.142142827105138E+00 -0.926778013704907E-02  0.222383198534004E-01
  -0.158585660345097E-02  0.239423623107376E-01 -0.582226561568567E-02 -0.113857348293628E-01  0.185220485534969E-02 -0.504291337777051E-03 -0.316014296739536E-03  0.232060627552472E-01 -0.926778013704907E-02  0.604523320988619E-03 -0.145032174750642E-02
   0.310956111200072E-02 -0.574598893864105E-01  0.139788176847847E-01  0.273224995639724E-01 -0.444393583375474E-02  0.120980534852820E-02  0.759001678451197E-03 -0.556864313204575E-01  0.222383198534004E-01 -0.145032174750642E-02  0.347973176203427E-02

 SYMMETRY BLOCK 6.1
   0.000000000000000E+00  0.000000000000000E+00  0.000000000000000E+00  0.000000000000000E+00
   0.000000000000000E+00  0.000000000000000E+00  0.000000000000000E+00  0.000000000000000E+00
   0.000000000000000E+00  0.000000000000000E+00  0.000000000000000E+00  0.000000000000000E+00
   0.000000000000000E+00  0.000000000000000E+00  0.000000000000000E+00  0.000000000000000E+00

 SYMMETRY BLOCK 7.1
   0.811757106457834E+00 -0.174725231147093E+00 -0.703712709605379E-01  0.109215079061022E+01 -0.233353944754765E+00  0.295799942447983E-01 -0.186047663511245E-01
  -0.174725231147093E+00  0.376084251761222E-01  0.151469404910388E-01 -0.235078076703925E+00  0.502278595555235E-01 -0.636689385363640E-02  0.400455022232287E-02
  -0.703712709605379E-01  0.151469404910388E-01  0.610048958882588E-02 -0.946786158130048E-01  0.202294670972504E-01 -0.256429142837443E-02  0.161284828138488E-02
   0.109215079061022E+01 -0.235078076703925E+00 -0.946786158130048E-01  0.146939686753761E+01 -0.313958070990007E+00  0.397973899380706E-01 -0.250311455456961E-01
  -0.233353944754765E+00  0.502278595555235E-01  0.202294670972504E-01 -0.313958070990007E+00  0.670817207504650E-01 -0.850329278048086E-02  0.534826930954764E-02
   0.295799942447983E-01 -0.636689385363640E-02 -0.256429142837443E-02  0.397973899380706E-01 -0.850329278048086E-02  0.107787914951595E-02 -0.677947722556424E-03
  -0.186047663511245E-01  0.400455022232287E-02  0.161284828138488E-02 -0.250311455456961E-01  0.534826930954764E-02 -0.677947722556424E-03  0.426405051740580E-03

 SYMMETRY BLOCK 8.1
   0.000000000000000E+00  0.000000000000000E+00
   0.000000000000000E+00  0.000000000000000E+00


 **********************************************************************************************************************************
 DATASETS  * FILE   NREC   LENGTH (MB)   RECORD NAMES
              1      19        8.20       500      610      700      900      950      970     1000      129      960     1100   
                                          VAR    BASINP    GEOM    SYMINP    ZMAT    AOBASIS   BASIS     P2S    ABASIS      S 
                                         1400     1410     1200     1210     1080     1600     1650     1300     1700   
                                           T        V       H0       H01     AOSYM     SMH    MOLCAS    ERIS     OPER   

              2       4        0.42       700     1000      520     2100   
                                         GEOM     BASIS   MCVARS     RHF  

 PROGRAMS   *        TOTAL    MATROP        HF       INT
 CPU TIMES  *         0.39      0.00      0.02      0.22
 REAL TIME  *         1.35 SEC
 DISK USED  *        13.23 MB      
 **********************************************************************************************************************************


 PROGRAM * MATROP


 Orbitals GAORBA read from record        2100.2  Type=RHF/CANONICAL (state 1.1)

 MATRIX GAORBA          

 SYMMETRY BLOCK 1.1
   0.100100794327968E+01 -0.302205103203695E-01  0.502876839345555E-02  0.669202858119305E-01 -0.684978135403633E-01 -0.256384244354287E+00 -0.696870109680137E+00  0.197890265261380E+00 -0.448895627885021E+00 -0.176953218617388E+00  0.564886082349552E+00
   0.705179007629011E-02  0.839033714811955E+00  0.917423408790073E-01 -0.159948065867676E+00 -0.325788323165013E+00 -0.897834261432341E+00 -0.322372420030778E+01  0.691434359391267E+00 -0.187237334742710E+01 -0.605516953750947E+00  0.265956992922919E+01
  -0.659929415915819E-02 -0.202055282405161E+00 -0.434141203895087E-01 -0.188237987087561E+01 -0.509866503695497E+00  0.111643256136936E+01  0.510129239681902E+01 -0.176333169632420E+01  0.150112735666622E+01  0.128125281040349E+01 -0.490721389632898E+00
  -0.610458996955046E-03  0.208371177674016E+00  0.854296157843083E+00  0.278527818830673E+00 -0.860792859352392E+00 -0.686141328970440E+00  0.428151091994557E+00  0.702584926746483E-02 -0.579338000300652E+00 -0.856696325128676E+00 -0.110637664609615E+01
   0.848626583077962E-03 -0.622521009710639E-01 -0.180596001009417E+00  0.586732929113710E+00  0.179688161543873E+01  0.570995577887744E+00 -0.107628137704533E+01  0.808543343935102E+00  0.116610918889840E+01  0.104475587772748E+00  0.176029050672550E+00
   0.868738288508794E-04  0.257978392178532E-01  0.261483612033589E-01 -0.710846059028013E-02 -0.878292170179942E-01 -0.574823979978146E-01 -0.194718002301647E+00  0.354584827025051E-02  0.690085596270396E+00  0.978137728730726E+00 -0.428328480909844E+00
  -0.385095256772072E-03  0.169218362621397E-02  0.167162478958916E-01  0.227738001912228E-01 -0.647255237665992E-01  0.292161862180747E+00 -0.103853606985413E+00  0.902159790752615E+00 -0.333749677031987E+00  0.267028993238387E+00 -0.898721715468487E+00
  -0.778026946658152E-03  0.402291431923073E+00 -0.556563843011433E+00  0.414588316567592E-01  0.984347760071205E+00 -0.154578176780767E+01  0.996573167227589E-01  0.179493284746802E+01  0.748789999194751E-02 -0.206787225183245E+00 -0.256473176804117E+01
   0.245196820782063E-02 -0.184577398845408E+00  0.150994348607064E+00  0.184996221092191E+01 -0.416913436428411E+00  0.110036849116708E+01 -0.170124643902136E+01 -0.586550904199558E+00 -0.249702507416667E-01 -0.377673417647524E+00  0.804565724484024E+00
   0.519880684710788E-03 -0.301209367731126E-01  0.269581039851511E-01 -0.201058296923038E-01  0.189749561056806E-01 -0.180643672837599E+00  0.294725401855139E+00  0.719846051198286E-02 -0.296461323138201E+00  0.920516472491225E+00  0.122920092353324E+01
  -0.221771866418731E-03  0.208269426236891E-01  0.539468405025375E-02  0.205314826313411E-01  0.624933107553802E-01  0.629853795898815E-01 -0.107303562259401E+00 -0.366139600480991E+00 -0.563929307758484E+00  0.767004615089907E+00 -0.112158281634560E+01

 SYMMETRY BLOCK 2.1
   0.795485158109244E+00 -0.145552581741017E+01 -0.386393232509455E+00 -0.527770562679995E+00
   0.591806055250157E-01  0.155559640516265E+01  0.351178536911408E+00 -0.102996314041278E-01
   0.429664190366884E-01 -0.157625390832873E+00  0.701377385585075E+00  0.578736593815207E+00
   0.266401667394529E-01 -0.474831744999907E-01 -0.361073389840639E+00  0.111467924714743E+01

 SYMMETRY BLOCK 3.1
   0.655886727714611E+00 -0.466746659067597E+00 -0.160005810346016E+00 -0.126547098941459E+01  0.627299204314995E-01  0.178565627283686E+00  0.229213136801889E+01
  -0.143605671478708E+00 -0.919305524362698E+00  0.744704099174609E+00  0.251513568052319E+01 -0.928674484069757E+00 -0.286663303246724E+00 -0.152842420598633E+00
  -0.287218907651701E-02  0.518056195299476E-02  0.203587913622085E+00 -0.349840628443308E+00  0.502320628254018E+00 -0.689375422465169E+00 -0.109103337806257E+01
   0.725277467703718E+00  0.730767131768581E-01 -0.173138541437257E+01  0.130693552874210E+00  0.142067933577008E+01 -0.845225820239789E+00 -0.293420175706875E+01
  -0.238536181731879E+00  0.237687329399281E+01  0.118614569944131E+01 -0.225539889978581E+01 -0.379030239794911E+00  0.914855684237379E+00  0.578382688563083E+00
  -0.228270378739093E-01 -0.256812393986789E-01 -0.231384079836421E-01  0.298172695661387E+00  0.677260893164791E+00  0.174042926483377E+00  0.140365776322837E+01
   0.207203021877930E-01  0.145977792371119E-01  0.132405866686235E+00 -0.140578726010333E+00  0.438860194064112E+00  0.885918728555923E+00 -0.841996527318301E+00

 SYMMETRY BLOCK 4.1
   0.678714269401330E+00 -0.869582840569375E+00
   0.404164284175688E+00  0.111652364555155E+01

 SYMMETRY BLOCK 5.1
   0.100161104996912E+01 -0.170876799962830E-01  0.756806952889928E-01  0.908381595015259E-01 -0.111579122903706E-01  0.110561627203797E+00 -0.919934549163212E+00 -0.234974884270366E+00 -0.283241390726522E+00  0.556323363472204E+00 -0.139911010236420E-01
   0.827547384173184E-02  0.689081080849699E+00 -0.239713722980760E+00  0.217859660546128E-02 -0.635023311004608E+00  0.486509957751422E+00 -0.395874295103480E+01 -0.116007841736773E+01 -0.773263541985955E+00  0.263037615921808E+01 -0.505605959350911E+00
  -0.103780813103766E-01 -0.167808005561656E+00 -0.214295835821130E+01 -0.402934928902660E+01  0.763749243058931E-01  0.815909958044377E+00  0.100451531920353E+02 -0.395982758770564E+00  0.594539877158726E+01 -0.145161223995154E+01 -0.359957053044915E+01
  -0.456381435514827E-03 -0.327591781305628E+00  0.148371546980447E+00 -0.367471536652389E+00 -0.521472955661712E+00 -0.138706308700698E+01 -0.160022416005679E+00 -0.690276258879304E+00  0.168945322595010E+01  0.313767965422624E+00  0.154710464593019E+01
  -0.111278066559848E-02  0.532580469554020E-01  0.313177812987534E+00 -0.406239434428043E+01  0.316315915556855E+00  0.373149101883655E+01  0.262815355009862E+01 -0.142964194012283E+01  0.215832464353599E+01 -0.923336418781763E+00 -0.143492684226785E+01
   0.482456093689668E-03 -0.144952106026159E-01  0.270646762613982E-03 -0.443307715286119E-01  0.164034059245858E+00  0.371254469076084E+00  0.260236727004869E+00 -0.207865327517419E+00  0.124574833540541E+01  0.119769395164213E+01  0.726223197490950E+00
  -0.959540718688643E-03 -0.911938206301552E-02  0.355624913584515E-01  0.425821803626774E-01 -0.238394307524198E+00  0.190040681578853E+00  0.112130116292821E+00 -0.458417632343262E+00 -0.661197757262092E+00  0.944600626576490E-01  0.160115322513736E+01
  -0.118048199032710E-02  0.667627590018739E+00  0.644313053491781E-01 -0.358074915216523E+00  0.176468582042892E+01 -0.490574550052226E+00 -0.798706690561922E+00 -0.915511975569732E+00 -0.928303302693636E+00 -0.691034202412069E+00  0.350928386463489E+01
   0.206868514271516E-02 -0.266584197007904E+00  0.210688951823051E+01 -0.118702960822068E+01 -0.154997899698067E+01  0.212959848788806E+01 -0.294198829555205E+00  0.658914047280877E-01  0.965243711107722E+00 -0.284799317725368E+00 -0.121220655558745E+01
  -0.495170243755858E-03  0.173786209730234E-01  0.103593481186517E-01 -0.108065465349346E-02 -0.116332978322621E+00  0.133979661586880E-01 -0.143564341310466E+00  0.866870096383196E+00 -0.700015509061494E-01  0.369073564548391E+00  0.138772352776725E+01
   0.840814611062769E-03 -0.417032242375450E-01 -0.357717310709133E-01 -0.298385061184810E-01  0.161332595095631E+00 -0.272954236624319E+00  0.198979844244928E+00  0.126190541325466E+00 -0.424428744730522E+00  0.126166868381436E+01 -0.914270540736331E+00

 SYMMETRY BLOCK 6.1
   0.739774289982537E+00 -0.161654117532769E+01 -0.441861549770479E+00  0.190748200625184E+00
   0.656673893666706E+00  0.230736525023128E+01 -0.653330083461330E+00  0.380583570387038E-02
  -0.365536251441608E-01  0.952178190712437E-01 -0.570504123471845E+00  0.144238555020368E+01
   0.359892288837032E-01 -0.656930567737922E-01  0.950447932482644E+00  0.748910591634906E+00

 SYMMETRY BLOCK 7.1
   0.637085985742048E+00 -0.418334181312105E+00 -0.143122605880924E+01 -0.385562109693074E+00  0.166201916452102E+00 -0.162148121441945E+01 -0.140567409206252E+01
  -0.137128452875620E+00 -0.204321010832224E+01  0.350606785184618E+01  0.421569803328462E+01 -0.300743919168015E+01 -0.348537998662576E-02 -0.312397063894573E+00
  -0.552290213059488E-01  0.477493318946298E-01 -0.191786734900742E+00  0.319961770067750E+00  0.104067875231062E+00 -0.457240005123553E+00  0.254415282787504E+01
   0.857145514932445E+00 -0.567807171754538E-01  0.454052953491571E+00 -0.221657642867266E+01  0.187703467901570E+01  0.664445548142416E+00  0.387982513162788E+01
  -0.183141640200236E+00  0.335491415269910E+01 -0.274830909803226E+01 -0.671861294569002E+00  0.353315161175198E+00  0.599200073518841E+00 -0.148925813030803E+01
   0.232150721463013E-01  0.327262648104883E-01 -0.267533385530842E+00  0.283643189823061E+00  0.670992790013502E+00  0.987259624903013E+00  0.170791406292526E+00
  -0.146014562927911E-01 -0.325692321716683E-01  0.249268241680756E+00  0.806506862919351E-01  0.686271361132388E+00 -0.759001189390171E+00 -0.152078744816397E+01

 SYMMETRY BLOCK 8.1
   0.555908205337646E+00  0.122231412339411E+01
   0.609615732643531E+00 -0.108927919251926E+01


 **********************************************************************************************************************************
 DATASETS  * FILE   NREC   LENGTH (MB)   RECORD NAMES
              1      19        8.20       500      610      700      900      950      970     1000      129      960     1100   
                                          VAR    BASINP    GEOM    SYMINP    ZMAT    AOBASIS   BASIS     P2S    ABASIS      S 
                                         1400     1410     1200     1210     1080     1600     1650     1300     1700   
                                           T        V       H0       H01     AOSYM     SMH    MOLCAS    ERIS     OPER   

              2       4        0.42       700     1000      520     2100   
                                         GEOM     BASIS   MCVARS     RHF  

 PROGRAMS   *        TOTAL    MATROP    MATROP        HF       INT
 CPU TIMES  *         0.40      0.01      0.00      0.02      0.22
 REAL TIME  *         1.36 SEC
 DISK USED  *        13.23 MB      
 **********************************************************************************************************************************

        HF-SCF  
    -78.03305982
 **********************************************************************************************************************************
 Variable memory released
